name;boiling_point;SMILES;IUPAC_name;CID;molecular_formula
Butane;-0.5;CCCC;butane;7843;C4H10
Dodecane;216.3;CCCCCCCCCCCC;dodecane;8182;C12H26
Propane;-42.1;CCC;propane;6334;C3H8
Ethane;-88.6;CC;ethane;6324;C2H6
5-Butyldocosane;244.0;CCCCCCCCCCCCCCCCCC(CCCC)CCCC;5-butyldocosane;143267;C26H54
11-Butyldocosane;242.5;CCCCCCCCCCCC(CCCC)CCCCCCCCCC;11-butyldocosane;139473;C26H54
11-Decylheneicosane;282.0;CCCCCCCCCCC(CCCCCCCCCC)CCCCCCCCCC;11-decylhenicosane;143269;C31H64
3,4-Diethylhexane;160.0;CCC(CC)C(CC)CC;3,4-diethylhexane;88038;C10H22
3,3-Diethylpentane;146.2;CCC(CC)(CC)CC;3,3-diethylpentane;14020;C9H20
2,3-Dimethylbutane;58.0;CC(C)C(C)C;2,3-dimethylbutane;6589;C6H14
2,2-Dimethylbutane;49.7;CCC(C)(C)C;2,2-dimethylbutane;6403;C6H14
2,2-Dimethylheptane;133.0;CCCCCC(C)(C)C;2,2-dimethylheptane;14062;C9H20
2,3-Dimethylheptane;140.6;CCCCC(C)C(C)C;2,3-dimethylheptane;26375;C9H20
2,4-Dimethylheptane;132.0;CCCC(C)CC(C)C;2,4-dimethylheptane;16656;C9H20
2,5-Dimethylheptane;135.0;CCC(C)CCC(C)C;2,5-dimethylheptane;16662;C9H20
2,6-Dimethylheptane;135.0;CC(C)CCCC(C)C;2,6-dimethylheptane;14069;C9H20
3,3-Dimethylheptane;137.0;CCCCC(C)(C)CC;3,3-dimethylheptane;520991;C9H20
3,4-Dimethylheptane;140.0;CCCC(C)C(C)CC;3,4-dimethylheptane;13534;C9H20
3,5-Dimethylheptane;135.0;CCC(C)CC(C)CC;3,5-dimethylheptane;13558;C9H20
4,4-Dimethylheptane;134.0;CCCC(C)(C)CCC;4,4-dimethylheptane;136827;C9H20
2,2-Dimethylhexane;106.8;CCCCC(C)(C)C;2,2-dimethylhexane;11551;C8H18
2,3-Dimethylhexane;115.6;CCCC(C)C(C)C;2,3-dimethylhexane;11447;C8H18
2,4-Dimethylhexane;109.4;CCC(C)CC(C)C;2,4-dimethylhexane;11511;C8H18
2,5-Dimethylhexane;109.1;CC(C)CCC(C)C;2,5-dimethylhexane;11592;C8H18
3,3-Dimethylhexane;111.9;CCCC(C)(C)CC;3,3-dimethylhexane;11233;C8H18
3,4-Dimethylhexane;117.7;CCC(C)C(C)CC;3,4-dimethylhexane;11412;C8H18
2,4-Dimethyl-3-isopropylpentane;157.0;CC(C)C(C(C)C)C(C)C;2,4-dimethyl-3-propan-2-ylpentane;518775;C10H22
2,2-Dimethyloctane;154.0;CCCCCCC(C)(C)C;2,2-dimethyloctane;85150;C10H22
2,3-Dimethyloctane;164.0;CCCCCC(C)C(C)C;2,3-dimethyloctane;23531;C10H22
2,4-Dimethyloctane;154.0;CCCCC(C)CC(C)C;2,4-dimethyloctane;92978;C10H22
2,5-Dimethyloctane;157.0;CCCC(C)CCC(C)C;2,5-dimethyloctane;139988;C10H22
2,6-Dimethyloctane;158.0;CCC(C)CCCC(C)C;2,6-dimethyloctane;16319;C10H22
2,7-Dimethyloctane;160.0;CC(C)CCCCC(C)C;2,7-dimethyloctane;14070;C10H22
3,4-Dimethyloctane;162.0;CCCCC(C)C(C)CC;3,4-dimethyloctane;85926;C10H22
3,6-Dimethyloctane;160.8;CCC(C)CCC(C)CC;3,6-dimethyloctane;85927;C10H22
2,2-Dimethylpentane;79.2;CCCC(C)(C)C;2,2-dimethylpentane;11542;C7H16
2,3-Dimethylpentane;89.8;CCC(C)C(C)C;2,3-dimethylpentane;11260;C7H16
2,4-Dimethylpentane;80.4;CC(C)CC(C)C;2,4-dimethylpentane;7907;C7H16
3,3-Dimethylpentane;86.0;CCC(C)(C)CC;3,3-dimethylpentane;11229;C7H16
Docosane;369.0;CCCCCCCCCCCCCCCCCCCCCC;docosane;12405;C22H46
Dotriacontane;470.0;CCCCCCCCCCCCCCCCCCCCCCCCCCCCCCCC;dotriacontane;11008;C32H66
Eicosane;344.1;CCCCCCCCCCCCCCCCCCCC;icosane;8222;C20H42
3-Ethyl-2,2-dimethylpentane;134.0;CCC(CC)C(C)(C)C;3-ethyl-2,2-dimethylpentane;28026;C9H20
3-Ethyl-2,3-dimethylpentane;142.0;CCC(C)(CC)C(C)C;3-ethyl-2,3-dimethylpentane;28027;C9H20
3-Ethyl-2,4-dimethylpentane;123.0;CCC(C(C)C)C(C)C;3-ethyl-2,4-dimethylpentane;14040;C9H20
3-Ethylheptane;143.1;CCCCC(CC)CC;3-ethylheptane;51806;C9H20
4-Ethylheptane;141.0;CCCC(CC)CCC;4-ethylheptane;16663;C9H20
3-Ethylhexane;118.5;CCCC(CC)CC;3-ethylhexane;12096;C8H18
3-Ethyl-2-methylhexane;138.0;CCCC(CC)C(C)C;3-ethyl-2-methylhexane;86067;C9H20
3-Ethyl-3-methylhexane;140.0;CCCC(C)(CC)CC;3-ethyl-3-methylhexane;18313;C9H20
3-Ethyl-4-methylhexane;140.0;CCC(C)C(CC)CC;3-ethyl-4-methylhexane;18314;C9H20
4-Ethyl-2-methylhexane;134.0;CCC(CC)CC(C)C;4-ethyl-2-methylhexane;18312;C9H20
3-Ethyl-2-methylpentane;115.6;CCC(CC)C(C)C;3-ethyl-2-methylpentane;11863;C8H18
3-Ethyl-3-methylpentane;118.2;CCC(C)(CC)CC;3-ethyl-3-methylpentane;14018;C8H18
3-Ethyloctane;165.0;CCCCCC(CC)CC;3-ethyloctane;79985;C10H22
4-Ethyloctane;163.0;CCCCC(CC)CCC;4-ethyloctane;85925;C10H22
3-Ethylpentane;93.4;CCC(CC)CC;3-ethylpentane;12048;C7H16
Heneicosane;359.0;CCCCCCCCCCCCCCCCCCCCC;henicosane;12403;C21H44
Hentriacontane;458.0;CCCCCCCCCCCCCCCCCCCCCCCCCCCCCCC;hentriacontane;12410;C31H64
Heptacosane;442.0;CCCCCCCCCCCCCCCCCCCCCCCCCCC;heptacosane;11636;C27H56
Heptadecane;303.0;CCCCCCCCCCCCCCCCC;heptadecane;12398;C17H36
2,2,4,4,6,8,8-Heptamethylnonane;246.0;CC(CC(C)(C)C)CC(C)(C)CC(C)(C)C;2,2,4,4,6,8,8-heptamethylnonane;20414;C16H34
Heptane;98.38;CCCCCCC;heptane;8900;C7H16
Hexacosane;415.0;CCCCCCCCCCCCCCCCCCCCCCCCCC;hexacosane;12407;C26H54
Hexadecane;286.9;CCCCCCCCCCCCCCCC;hexadecane;11006;C16H34
2,6,10,15,19,23-Hexamethyltetracosane;420.0;CC(C)CCCC(C)CCCC(C)CCCCC(C)CCCC(C)CCCC(C)C;2,6,10,15,19,23-hexamethyltetracosane;8089;C30H62
Hexane;68.72;CCCCCC;hexane;8058;C6H14
Isobutane;-11.7;CC(C)C;2-methylpropane;6360;C4H10
2-Methyldecane;189.2;CCCCCCCCC(C)C;2-methyldecane;23415;C11H24
3-Methyldecane;192.0;CCCCCCCC(C)CC;3-methyldecane;92239;C11H24
4-Methyldecane;188.0;CCCCCCC(C)CCC;4-methyldecane;17835;C11H24
2-Methylheptane;117.6;CCCCCC(C)C;2-methylheptane;11594;C8H18
3-Methylheptane;118.9;CCCCC(C)CC;3-methylheptane;11519;C8H18
4-Methylheptane;117.7;CCCC(C)CCC;4-methylheptane;11512;C8H18
2-Methylhexane;90.0;CCCCC(C)C;2-methylhexane;11582;C7H16
3-Methylhexane;92.0;CCCC(C)CC;3-methylhexane;11507;C7H16
2-Methylnonane;167.0;CCCCCCCC(C)C;2-methylnonane;13379;C10H22
3-Methylnonane;168.0;CCCCCCC(C)CC;3-methylnonane;22202;C10H22
4-Methylnonane;166.0;CCCCCC(C)CCC;4-methylnonane;28455;C10H22
5-Methylnonane;164.0;CCCCC(C)CCCC;5-methylnonane;27518;C10H22
2-Methyloctane;143.0;CCCCCCC(C)C;2-methyloctane;18591;C9H20
3-Methyloctane;144.0;CCCCCC(C)CC;3-methyloctane;16664;C9H20
4-Methyloctane;142.0;CCCCC(C)CCC;4-methyloctane;16665;C9H20
2-Methylpentane;60.21;CCCC(C)C;2-methylpentane;7892;C6H14
3-Methylpentane;63.3;CCC(C)CC;3-methylpentane;7282;C6H14
2-Methylundecane;211.0;CCCCCCCCCC(C)C;2-methylundecane;23459;C12H26
3-Methylundecane;212.0;CCCCCCCCC(C)CC;3-methylundecane;13845;C12H26
Nonacosane;443.0;CCCCCCCCCCCCCCCCCCCCCCCCCCCCC;nonacosane;12409;C29H60
Nonacontane;612.0;CCCCCCCCCCCCCCCCCCCCCCCCCCCCCCCCCCCCCCCCCCCCCCCCCCCCCCCCCCCCCCCCCCCCCCCCCCCCCCCCCCCCCCCCCC;nonacontane;18980672;C90H182
Nonadecane;330.0;CCCCCCCCCCCCCCCCCCC;nonadecane;12401;C19H40
Octacontane;672.0;CCCCCCCCCCCCCCCCCCCCCCCCCCCCCCCCCCCCCCCCCCCCCCCCCCCCCCCCCCCCCCCCCCCCCCCCCCCCCCCC;octacontane;15043591;C80H162
Octacosane;432.0;CCCCCCCCCCCCCCCCCCCCCCCCCCCC;octacosane;12408;C28H58
Octadecane;316.0;CCCCCCCCCCCCCCCCCC;octadecane;11635;C18H38
Octane;125.6;CCCCCCCC;octane;356;C8H18
Pentacontane;575.0;CCCCCCCCCCCCCCCCCCCCCCCCCCCCCCCCCCCCCCCCCCCCCCCCCC;pentacontane;81067;C50H102
Pentacosane;401.9;CCCCCCCCCCCCCCCCCCCCCCCCC;pentacosane;12406;C25H52
Pentadecane;270.6;CCCCCCCCCCCCCCC;pentadecane;12391;C15H32
2,2,4,6,6-Pentamethylheptane;178.0;CC(CC(C)(C)C)CC(C)(C)C;2,2,4,6,6-pentamethylheptane;26058;C12H26
2,2,3,3,4-Pentamethylpentane;166.0;CC(C)C(C)(C)C(C)(C)C;2,2,3,3,4-pentamethylpentane;519302;C10H22
2,2,3,4,4-Pentamethylpentane;159.0;CC(C(C)(C)C)C(C)(C)C;2,2,3,4,4-pentamethylpentane;519303;C10H22
Pentane;36.06;CCCCC;pentane;8003;C5H12
Pentatriacontane;489.0;CCCCCCCCCCCCCCCCCCCCCCCCCCCCCCCCCCC;pentatriacontane;12413;C35H72
4-Propylheptane;167.0;CCCC(CCC)CCC;4-propylheptane;137855;C10H22
Tetracosane;391.0;CCCCCCCCCCCCCCCCCCCCCCCC;tetracosane;12592;C24H50
Tetracontane;522.0;CCCCCCCCCCCCCCCCCCCCCCCCCCCCCCCCCCCCCCCC;tetracontane;20149;C40H82
Tetradecane;253.5;CCCCCCCCCCCCCC;tetradecane;12389;C14H30
2,2,3,3-Tetramethylbutane;106.32;CC(C)(C)C(C)(C)C;2,2,3,3-tetramethylbutane;11675;C8H18
2,2,3,3-Tetramethylhexane;160.0;CCCC(C)(C)C(C)(C)C;2,2,3,3-tetramethylhexane;26057;C10H22
2,2,5,5-Tetramethylhexane;137.0;CC(C)(C)CCC(C)(C)C;2,2,5,5-tetramethylhexane;14067;C10H22
3,3,4,4-Tetramethylhexane;170.0;CCC(C)(C)C(C)(C)CC;3,3,4,4-tetramethylhexane;78849;C10H22
2,2,3,3-Tetramethylpentane;140.2;CCC(C)(C)C(C)(C)C;2,2,3,3-tetramethylpentane;92723;C9H20
2,2,3,4-Tetramethylpentane;133.0;CC(C)C(C)C(C)(C)C;2,2,3,4-tetramethylpentane;14462;C9H20
2,2,4,4-Tetramethylpentane;122.2;CC(C)(C)CC(C)(C)C;2,2,4,4-tetramethylpentane;14058;C9H20
2,3,3,4-Tetramethylpentane;141.5;CC(C)C(C)(C)C(C)C;2,3,3,4-tetramethylpentane;28028;C9H20
Triacontane;451.0;CCCCCCCCCCCCCCCCCCCCCCCCCCCCCC;triacontane;12535;C30H62
Tricosane;381.0;CCCCCCCCCCCCCCCCCCCCCCC;tricosane;12534;C23H48
2,2,3-Trimethylbutane;80.8;CC(C)C(C)(C)C;2,2,3-trimethylbutane;10044;C7H16
2,2,6-Trimethylheptane;149.0;CC(C)CCCC(C)(C)C;2,2,6-trimethylheptane;518457;C10H22
2,5,5-Trimethylheptane;153.0;CCC(C)(C)CCC(C)C;2,5,5-trimethylheptane;14478;C10H22
3,3,5-Trimethylheptane;157.0;CCC(C)CC(C)(C)CC;3,3,5-trimethylheptane;23544;C10H22
3,4,5-Trimethylheptane;162.5;CCC(C)C(C)C(C)CC;3,4,5-trimethylheptane;89304;C10H22
2,2,3-Trimethylhexane;134.0;CCCC(C)C(C)(C)C;2,2,3-trimethylhexane;28021;C9H20
2,2,4-Trimethylhexane;127.0;CCC(C)CC(C)(C)C;2,2,4-trimethylhexane;28022;C9H20
2,2,5-Trimethylhexane;124.0;CC(C)CCC(C)(C)C;2,2,5-trimethylhexane;19041;C9H20
2,3,3-Trimethylhexane;137.0;CCCC(C)(C)C(C)C;2,3,3-trimethylhexane;28023;C9H20
2,3,4-Trimethylhexane;139.0;CCC(C)C(C)C(C)C;2,3,4-trimethylhexane;13533;C9H20
2,3,5-Trimethylhexane;131.0;CC(C)CC(C)C(C)C;2,3,5-trimethylhexane;14045;C9H20
2,4,4-Trimethylhexane;130.6;CCC(C)(C)CC(C)C;2,4,4-trimethylhexane;28024;C9H20
3,3,4-Trimethylhexane;139.0;CCC(C)C(C)(C)CC;3,3,4-trimethylhexane;28025;C9H20
2,2,3-Trimethylpentane;109.8;CCC(C)C(C)(C)C;2,2,3-trimethylpentane;11255;C8H18
2,2,4-Trimethylpentane;99.2;CC(C)CC(C)(C)C;2,2,4-trimethylpentane;10907;C8H18
2,3,3-Trimethylpentane;114.7;CCC(C)(C)C(C)C;2,3,3-trimethylpentane;11215;C8H18
2,3,4-Trimethylpentane;113.4;CC(C)C(C)C(C)C;2,3,4-trimethylpentane;11269;C8H18
Undecane;195.9;CCCCCCCCCCC;undecane;14257;C11H24
Decane;174.1;CCCCCCCCCC;decane;15600;C10H22
Nonane;150.8;CCCCCCCCC;nonane;8141;C9H20