name;boiling_point;SMILES;IUPAC_name;CID;molecular_formula;M1;M2;num_atoms;MW;InChIKey
Butane;-0.5;CCCC;butane;7843;C4H10;10;8;4;58.123999999999995;IJDNQMDRQITEOD-UHFFFAOYSA-N
Dodecane;216.3;CCCCCCCCCCCC;dodecane;8182;C12H26;42;40;12;170.33999999999997;SNRUBQQJIBEYMU-UHFFFAOYSA-N
Propane;-42.1;CCC;propane;6334;C3H8;6;4;3;44.096999999999994;ATUOYWHBWRKTHZ-UHFFFAOYSA-N
Ethane;-88.6;CC;ethane;6324;C2H6;2;1;2;30.07;OTMSDBZUPAUEDD-UHFFFAOYSA-N
5-Butyldocosane;244.0;CCCCCCCCCCCCCCCCCC(CCCC)CCCC;5-butyldocosane;143267;C26H54;100;100;26;366.7180000000002;CSRNPDQIQWQJCM-UHFFFAOYSA-N
11-Butyldocosane;242.5;CCCCCCCCCCCC(CCCC)CCCCCCCCCC;11-butyldocosane;139473;C26H54;100;100;26;366.71800000000025;HEUYLTACOIADBB-UHFFFAOYSA-N
11-Decylheneicosane;282.0;CCCCCCCCCCC(CCCCCCCCCC)CCCCCCCCCC;11-decylhenicosane;143269;C31H64;120;120;31;436.8530000000004;BCWYKEQUGMQGAP-UHFFFAOYSA-N
3,4-Diethylhexane;160.0;CCC(CC)C(CC)CC;3,4-diethylhexane;88038;C10H22;38;41;10;142.286;VBZCRMTUDYIWIH-UHFFFAOYSA-N
3,3-Diethylpentane;146.2;CCC(CC)(CC)CC;3,3-diethylpentane;14020;C9H20;36;40;9;128.259;BGXXXYLRPIRDHJ-UHFFFAOYSA-N
2,3-Dimethylbutane;58.0;CC(C)C(C)C;2,3-dimethylbutane;6589;C6H14;22;21;6;86.178;ZFFMLCVRJBZUDZ-UHFFFAOYSA-N
2,2-Dimethylbutane;49.7;CCC(C)(C)C;2,2-dimethylbutane;6403;C6H14;24;22;6;86.17799999999998;HNRMPXKDFBEGFZ-UHFFFAOYSA-N
2,2-Dimethylheptane;133.0;CCCCCC(C)(C)C;2,2-dimethylheptane;14062;C9H20;36;34;9;128.259;PSABUFWDVWCFDP-UHFFFAOYSA-N
2,3-Dimethylheptane;140.6;CCCCC(C)C(C)C;2,3-dimethylheptane;26375;C9H20;34;34;9;128.25899999999996;WBRFDUJXCLCKPX-UHFFFAOYSA-N
2,4-Dimethylheptane;132.0;CCCC(C)CC(C)C;2,4-dimethylheptane;16656;C9H20;34;33;9;128.259;AUKVIBNBLXQNIZ-UHFFFAOYSA-N
2,5-Dimethylheptane;135.0;CCC(C)CCC(C)C;2,5-dimethylheptane;16662;C9H20;34;33;9;128.259;HQZHQNKZOYIKQC-UHFFFAOYSA-N
2,6-Dimethylheptane;135.0;CC(C)CCCC(C)C;2,6-dimethylheptane;14069;C9H20;34;32;9;128.259;KBPCCVWUMVGXGF-UHFFFAOYSA-N
3,3-Dimethylheptane;137.0;CCCCC(C)(C)CC;3,3-dimethylheptane;520991;C9H20;36;36;9;128.259;BVAKDOXCVSMKHE-UHFFFAOYSA-N
3,4-Dimethylheptane;140.0;CCCC(C)C(C)CC;3,4-dimethylheptane;13534;C9H20;34;35;9;128.259;MAKRYGRRIKSDES-UHFFFAOYSA-N
3,5-Dimethylheptane;135.0;CCC(C)CC(C)CC;3,5-dimethylheptane;13558;C9H20;34;34;9;128.259;DZJTZGHZAWTWGA-UHFFFAOYSA-N
4,4-Dimethylheptane;134.0;CCCC(C)(C)CCC;4,4-dimethylheptane;136827;C9H20;36;36;9;128.259;WSOKFYJGNBQDPW-UHFFFAOYSA-N
2,2-Dimethylhexane;106.8;CCCCC(C)(C)C;2,2-dimethylhexane;11551;C8H18;32;30;8;114.23199999999999;FLTJDUOFAQWHDF-UHFFFAOYSA-N
2,3-Dimethylhexane;115.6;CCCC(C)C(C)C;2,3-dimethylhexane;11447;C8H18;30;30;8;114.23199999999999;JXPOLSKBTUYKJB-UHFFFAOYSA-N
2,4-Dimethylhexane;109.4;CCC(C)CC(C)C;2,4-dimethylhexane;11511;C8H18;30;29;8;114.23199999999999;HDGQICNBXPAKLR-UHFFFAOYSA-N
2,5-Dimethylhexane;109.1;CC(C)CCC(C)C;2,5-dimethylhexane;11592;C8H18;30;28;8;114.23199999999999;UWNADWZGEHDQAB-UHFFFAOYSA-N
3,3-Dimethylhexane;111.9;CCCC(C)(C)CC;3,3-dimethylhexane;11233;C8H18;32;32;8;114.23199999999999;KUMXLFIBWFCMOJ-UHFFFAOYSA-N
3,4-Dimethylhexane;117.7;CCC(C)C(C)CC;3,4-dimethylhexane;11412;C8H18;30;31;8;114.23199999999999;RNTWWGNZUXGTAX-UHFFFAOYSA-N
2,4-Dimethyl-3-isopropylpentane;157.0;CC(C)C(C(C)C)C(C)C;2,4-dimethyl-3-propan-2-ylpentane;518775;C10H22;42;45;10;142.28599999999997;YVYHOOYMDHZALB-UHFFFAOYSA-N
2,2-Dimethyloctane;154.0;CCCCCCC(C)(C)C;2,2-dimethyloctane;85150;C10H22;40;38;10;142.286;GPBUTTSWJNPYJL-UHFFFAOYSA-N
2,3-Dimethyloctane;164.0;CCCCCC(C)C(C)C;2,3-dimethyloctane;23531;C10H22;38;38;10;142.28599999999997;YPMNDMUOGQJCLW-UHFFFAOYSA-N
2,4-Dimethyloctane;154.0;CCCCC(C)CC(C)C;2,4-dimethyloctane;92978;C10H22;38;37;10;142.28599999999997;IXAVTTRPEXFVSX-UHFFFAOYSA-N
2,5-Dimethyloctane;157.0;CCCC(C)CCC(C)C;2,5-dimethyloctane;139988;C10H22;38;37;10;142.286;HOAAQUNESXYFDT-UHFFFAOYSA-N
2,6-Dimethyloctane;158.0;CCC(C)CCCC(C)C;2,6-dimethyloctane;16319;C10H22;38;37;10;142.286;ZALHPSXXQIPKTQ-UHFFFAOYSA-N
2,7-Dimethyloctane;160.0;CC(C)CCCCC(C)C;2,7-dimethyloctane;14070;C10H22;38;36;10;142.286;KEVMYFLMMDUPJE-UHFFFAOYSA-N
3,4-Dimethyloctane;162.0;CCCCC(C)C(C)CC;3,4-dimethyloctane;85926;C10H22;38;39;10;142.28599999999997;QQCWGAMGBCGAQJ-UHFFFAOYSA-N
3,6-Dimethyloctane;160.8;CCC(C)CCC(C)CC;3,6-dimethyloctane;85927;C10H22;38;38;10;142.286;JEEQUUSFXYRPRK-UHFFFAOYSA-N
2,2-Dimethylpentane;79.2;CCCC(C)(C)C;2,2-dimethylpentane;11542;C7H16;28;26;7;100.20499999999998;CXOWYJMDMMMMJO-UHFFFAOYSA-N
2,3-Dimethylpentane;89.8;CCC(C)C(C)C;2,3-dimethylpentane;11260;C7H16;26;26;7;100.20499999999998;WGECXQBGLLYSFP-UHFFFAOYSA-N
2,4-Dimethylpentane;80.4;CC(C)CC(C)C;2,4-dimethylpentane;7907;C7H16;26;24;7;100.20499999999998;BZHMBWZPUJHVEE-UHFFFAOYSA-N
3,3-Dimethylpentane;86.0;CCC(C)(C)CC;3,3-dimethylpentane;11229;C7H16;28;28;7;100.20499999999998;AEXMKKGTQYQZCS-UHFFFAOYSA-N
Docosane;369.0;CCCCCCCCCCCCCCCCCCCCCC;docosane;12405;C22H46;82;80;22;310.61;HOWGUJZVBDQJKV-UHFFFAOYSA-N
Dotriacontane;470.0;CCCCCCCCCCCCCCCCCCCCCCCCCCCCCCCC;dotriacontane;11008;C32H66;122;120;32;450.88000000000045;QHMGJGNTMQDRQA-UHFFFAOYSA-N
Eicosane;344.1;CCCCCCCCCCCCCCCCCCCC;icosane;8222;C20H42;74;72;20;282.5559999999999;CBFCDTFDPHXCNY-UHFFFAOYSA-N
3-Ethyl-2,2-dimethylpentane;134.0;CCC(CC)C(C)(C)C;3-ethyl-2,2-dimethylpentane;28026;C9H20;38;40;9;128.259;CLZCPQKGOAXOJT-UHFFFAOYSA-N
3-Ethyl-2,3-dimethylpentane;142.0;CCC(C)(CC)C(C)C;3-ethyl-2,3-dimethylpentane;28027;C9H20;38;42;9;128.25899999999996;MMASVVOQIKCFJZ-UHFFFAOYSA-N
3-Ethyl-2,4-dimethylpentane;123.0;CCC(C(C)C)C(C)C;3-ethyl-2,4-dimethylpentane;14040;C9H20;36;38;9;128.259;VLHAGZNBWKUMRW-UHFFFAOYSA-N
3-Ethylheptane;143.1;CCCCC(CC)CC;3-ethylheptane;51806;C9H20;32;32;9;128.259;PSVQKOKKLWHNRP-UHFFFAOYSA-N
4-Ethylheptane;141.0;CCCC(CC)CCC;4-ethylheptane;16663;C9H20;32;32;9;128.259;XMROPFQWHHUFFS-UHFFFAOYSA-N
3-Ethylhexane;118.5;CCCC(CC)CC;3-ethylhexane;12096;C8H18;28;28;8;114.232;SFRKSDZMZHIISH-UHFFFAOYSA-N
3-Ethyl-2-methylhexane;138.0;CCCC(CC)C(C)C;3-ethyl-2-methylhexane;86067;C9H20;34;35;9;128.259;MVLOWDRGPHBNNF-UHFFFAOYSA-N
3-Ethyl-3-methylhexane;140.0;CCCC(C)(CC)CC;3-ethyl-3-methylhexane;18313;C9H20;36;38;9;128.259;CYWROHZCELEGSE-UHFFFAOYSA-N
3-Ethyl-4-methylhexane;140.0;CCC(C)C(CC)CC;3-ethyl-4-methylhexane;18314;C9H20;34;36;9;128.259;OKCRKWVABWILDR-UHFFFAOYSA-N
4-Ethyl-2-methylhexane;134.0;CCC(CC)CC(C)C;4-ethyl-2-methylhexane;18312;C9H20;34;34;9;128.259;KYCZJIBOPKRSOV-UHFFFAOYSA-N
3-Ethyl-2-methylpentane;115.6;CCC(CC)C(C)C;3-ethyl-2-methylpentane;11863;C8H18;30;31;8;114.23199999999999;DUPUVYJQZSLSJB-UHFFFAOYSA-N
3-Ethyl-3-methylpentane;118.2;CCC(C)(CC)CC;3-ethyl-3-methylpentane;14018;C8H18;32;34;8;114.23199999999999;GIEZWIDCIFCQPS-UHFFFAOYSA-N
3-Ethyloctane;165.0;CCCCCC(CC)CC;3-ethyloctane;79985;C10H22;36;36;10;142.286;OEYGTUAKNZFCDJ-UHFFFAOYSA-N
4-Ethyloctane;163.0;CCCCC(CC)CCC;4-ethyloctane;85925;C10H22;36;36;10;142.286;NRJUFUBKIFIKFI-UHFFFAOYSA-N
3-Ethylpentane;93.4;CCC(CC)CC;3-ethylpentane;12048;C7H16;24;24;7;100.205;AORMDLNPRGXHHL-UHFFFAOYSA-N
Heneicosane;359.0;CCCCCCCCCCCCCCCCCCCCC;henicosane;12403;C21H44;78;76;21;296.58299999999997;FNAZRRHPUDJQCJ-UHFFFAOYSA-N
Hentriacontane;458.0;CCCCCCCCCCCCCCCCCCCCCCCCCCCCCCC;hentriacontane;12410;C31H64;118;116;31;436.8530000000004;IUJAMGNYPWYUPM-UHFFFAOYSA-N
Heptacosane;442.0;CCCCCCCCCCCCCCCCCCCCCCCCCCC;heptacosane;11636;C27H56;102;100;27;380.74500000000023;BJQWYEJQWHSSCJ-UHFFFAOYSA-N
Heptadecane;303.0;CCCCCCCCCCCCCCCCC;heptadecane;12398;C17H36;62;60;17;240.4749999999999;NDJKXXJCMXVBJW-UHFFFAOYSA-N
2,2,4,4,6,8,8-Heptamethylnonane;246.0;CC(CC(C)(C)C)CC(C)(C)CC(C)(C)C;2,2,4,4,6,8,8-heptamethylnonane;20414;C16H34;78;79;16;226.44799999999995;VCLJODPNBNEBKW-UHFFFAOYSA-N
Heptane;98.38;CCCCCCC;heptane;8900;C7H16;22;20;7;100.205;IMNFDUFMRHMDMM-UHFFFAOYSA-N
Hexacosane;415.0;CCCCCCCCCCCCCCCCCCCCCCCCCC;hexacosane;12407;C26H54;98;96;26;366.7180000000002;HMSWAIKSFDFLKN-UHFFFAOYSA-N
Hexadecane;286.9;CCCCCCCCCCCCCCCC;hexadecane;11006;C16H34;58;56;16;226.44799999999992;DCAYPVUWAIABOU-UHFFFAOYSA-N
2,6,10,15,19,23-Hexamethyltetracosane;420.0;CC(C)CCCC(C)CCCC(C)CCCCC(C)CCCC(C)CCCC(C)C;2,6,10,15,19,23-hexamethyltetracosane;8089;C30H62;126;128;30;422.8260000000003;PRAKJMSDJKAYCZ-UHFFFAOYSA-N
Hexane;68.72;CCCCCC;hexane;8058;C6H14;18;16;6;86.178;VLKZOEOYAKHREP-UHFFFAOYSA-N
Isobutane;-11.7;CC(C)C;2-methylpropane;6360;C4H10;12;9;4;58.123999999999995;NNPPMTNAJDCUHE-UHFFFAOYSA-N
2-Methyldecane;189.2;CCCCCCCCC(C)C;2-methyldecane;23415;C11H24;40;38;11;156.313;CNPVJWYWYZMPDS-UHFFFAOYSA-N
3-Methyldecane;192.0;CCCCCCCC(C)CC;3-methyldecane;92239;C11H24;40;39;11;156.313;JJRUZTXRDDMYGM-UHFFFAOYSA-N
4-Methyldecane;188.0;CCCCCCC(C)CCC;4-methyldecane;17835;C11H24;40;39;11;156.313;DVWZNKLWPILULD-UHFFFAOYSA-N
2-Methylheptane;117.6;CCCCCC(C)C;2-methylheptane;11594;C8H18;28;26;8;114.23199999999999;JVSWJIKNEAIKJW-UHFFFAOYSA-N
3-Methylheptane;118.9;CCCCC(C)CC;3-methylheptane;11519;C8H18;28;27;8;114.23199999999999;LAIUFBWHERIJIH-UHFFFAOYSA-N
4-Methylheptane;117.7;CCCC(C)CCC;4-methylheptane;11512;C8H18;28;27;8;114.232;CHBAWFGIXDBEBT-UHFFFAOYSA-N
2-Methylhexane;90.0;CCCCC(C)C;2-methylhexane;11582;C7H16;24;22;7;100.20499999999998;GXDHCNNESPLIKD-UHFFFAOYSA-N
3-Methylhexane;92.0;CCCC(C)CC;3-methylhexane;11507;C7H16;24;23;7;100.205;VLJXXKKOSFGPHI-UHFFFAOYSA-N
2-Methylnonane;167.0;CCCCCCCC(C)C;2-methylnonane;13379;C10H22;36;34;10;142.286;SGVYKUFIHHTIFL-UHFFFAOYSA-N
3-Methylnonane;168.0;CCCCCCC(C)CC;3-methylnonane;22202;C10H22;36;35;10;142.286;PLZDDPSCZHRBOY-UHFFFAOYSA-N
4-Methylnonane;166.0;CCCCCC(C)CCC;4-methylnonane;28455;C10H22;36;35;10;142.286;IALRSQMWHFKJJA-UHFFFAOYSA-N
5-Methylnonane;164.0;CCCCC(C)CCCC;5-methylnonane;27518;C10H22;36;35;10;142.286;TYSIILFJZXHVPU-UHFFFAOYSA-N
2-Methyloctane;143.0;CCCCCCC(C)C;2-methyloctane;18591;C9H20;32;30;9;128.259;ZUBZATZOEPUUQF-UHFFFAOYSA-N
3-Methyloctane;144.0;CCCCCC(C)CC;3-methyloctane;16664;C9H20;32;31;9;128.259;SEEOMASXHIJCDV-UHFFFAOYSA-N
4-Methyloctane;142.0;CCCCC(C)CCC;4-methyloctane;16665;C9H20;32;31;9;128.259;DOGIHOCMZJUJNR-UHFFFAOYSA-N
2-Methylpentane;60.21;CCCC(C)C;2-methylpentane;7892;C6H14;20;18;6;86.178;AFABGHUZZDYHJO-UHFFFAOYSA-N
3-Methylpentane;63.3;CCC(C)CC;3-methylpentane;7282;C6H14;20;19;6;86.178;PFEOZHBOMNWTJB-UHFFFAOYSA-N
2-Methylundecane;211.0;CCCCCCCCCC(C)C;2-methylundecane;23459;C12H26;44;42;12;170.34;GTJOHISYCKPIMT-UHFFFAOYSA-N
3-Methylundecane;212.0;CCCCCCCCC(C)CC;3-methylundecane;13845;C12H26;44;43;12;170.33999999999997;HTZWVZNRDDOFEI-UHFFFAOYSA-N
Nonacosane;443.0;CCCCCCCCCCCCCCCCCCCCCCCCCCCCC;nonacosane;12409;C29H60;110;108;29;408.7990000000003;IGGUPRCHHJZPBS-UHFFFAOYSA-N
Nonadecane;330.0;CCCCCCCCCCCCCCCCCCC;nonadecane;12401;C19H40;70;68;19;268.5289999999999;LQERIDTXQFOHKA-UHFFFAOYSA-N
Octacontane;672.0;CCCCCCCCCCCCCCCCCCCCCCCCCCCCCCCCCCCCCCCCCCCCCCCCCCCCCCCCCCCCCCCCCCCCCCCCCCCCCCCC;octacontane;15043591;C80H162;314;312;80;1124.1759999999983;OVINWRTYCHUVDD-UHFFFAOYSA-N
Octacosane;432.0;CCCCCCCCCCCCCCCCCCCCCCCCCCCC;octacosane;12408;C28H58;106;104;28;394.7720000000003;ZYURHZPYMFLWSH-UHFFFAOYSA-N
Octadecane;316.0;CCCCCCCCCCCCCCCCCC;octadecane;11635;C18H38;66;64;18;254.5019999999999;RZJRJXONCZWCBN-UHFFFAOYSA-N
Octane;125.6;CCCCCCCC;octane;356;C8H18;26;24;8;114.232;TVMXDCGIABBOFY-UHFFFAOYSA-N
Pentacontane;575.0;CCCCCCCCCCCCCCCCCCCCCCCCCCCCCCCCCCCCCCCCCCCCCCCCCC;pentacontane;81067;C50H102;194;192;50;703.3659999999998;PFLUOWJPZLHUEA-UHFFFAOYSA-N
Pentacosane;401.9;CCCCCCCCCCCCCCCCCCCCCCCCC;pentacosane;12406;C25H52;94;92;25;352.69100000000014;YKNWIILGEFFOPE-UHFFFAOYSA-N
Pentadecane;270.6;CCCCCCCCCCCCCCC;pentadecane;12391;C15H32;54;52;15;212.42099999999994;YCOZIPAWZNQLMR-UHFFFAOYSA-N
2,2,4,6,6-Pentamethylheptane;178.0;CC(CC(C)(C)C)CC(C)(C)C;2,2,4,6,6-pentamethylheptane;26058;C12H26;56;55;12;170.33999999999997;VKPSKYDESGTTFR-UHFFFAOYSA-N
2,2,3,3,4-Pentamethylpentane;166.0;CC(C)C(C)(C)C(C)(C)C;2,2,3,3,4-pentamethylpentane;519302;C10H22;48;54;10;142.28599999999997;WKQBIIUOSATALN-UHFFFAOYSA-N
2,2,3,4,4-Pentamethylpentane;159.0;CC(C(C)(C)C)C(C)(C)C;2,2,3,4,4-pentamethylpentane;519303;C10H22;48;51;10;142.28599999999997;OWFKEHICSVOVAC-UHFFFAOYSA-N
Pentane;36.06;CCCCC;pentane;8003;C5H12;14;12;5;72.151;OFBQJSOFQDEBGM-UHFFFAOYSA-N
Pentatriacontane;489.0;CCCCCCCCCCCCCCCCCCCCCCCCCCCCCCCCCCC;pentatriacontane;12413;C35H72;134;132;35;492.9610000000006;VHQQPFLOGSTQPC-UHFFFAOYSA-N
4-Propylheptane;167.0;CCCC(CCC)CCC;4-propylheptane;137855;C10H22;36;36;10;142.286;ABYGSZMCWVXFCQ-UHFFFAOYSA-N
Tetracosane;391.0;CCCCCCCCCCCCCCCCCCCCCCCC;tetracosane;12592;C24H50;90;88;24;338.6640000000001;POOSGDOYLQNASK-UHFFFAOYSA-N
Tetracontane;522.0;CCCCCCCCCCCCCCCCCCCCCCCCCCCCCCCCCCCCCCCC;tetracontane;20149;C40H82;154;152;40;563.0960000000005;KUPLEGDPSCCPJI-UHFFFAOYSA-N
Tetradecane;253.5;CCCCCCCCCCCCCC;tetradecane;12389;C14H30;50;48;14;198.39399999999995;BGHCVCJVXZWKCC-UHFFFAOYSA-N
2,2,3,3-Tetramethylbutane;106.32;CC(C)(C)C(C)(C)C;2,2,3,3-tetramethylbutane;11675;C8H18;38;40;8;114.23199999999999;OMMLUKLXGSRPHK-UHFFFAOYSA-N
2,2,3,3-Tetramethylhexane;160.0;CCCC(C)(C)C(C)(C)C;2,2,3,3-tetramethylhexane;26057;C10H22;46;50;10;142.28599999999997;RMQHJMMCLSJULX-UHFFFAOYSA-N
2,2,5,5-Tetramethylhexane;137.0;CC(C)(C)CCC(C)(C)C;2,2,5,5-tetramethylhexane;14067;C10H22;46;44;10;142.286;HXQDUXXBVMMIKL-UHFFFAOYSA-N
3,3,4,4-Tetramethylhexane;170.0;CCC(C)(C)C(C)(C)CC;3,3,4,4-tetramethylhexane;78849;C10H22;46;52;10;142.28599999999997;MCEYLFHKATVXLN-UHFFFAOYSA-N
2,2,3,3-Tetramethylpentane;140.2;CCC(C)(C)C(C)(C)C;2,2,3,3-tetramethylpentane;92723;C9H20;42;46;9;128.25899999999996;QUKOJKFJIHSBKV-UHFFFAOYSA-N
2,2,3,4-Tetramethylpentane;133.0;CC(C)C(C)C(C)(C)C;2,2,3,4-tetramethylpentane;14462;C9H20;40;42;9;128.259;VZFMYOCAEQDWDY-UHFFFAOYSA-N
2,2,4,4-Tetramethylpentane;122.2;CC(C)(C)CC(C)(C)C;2,2,4,4-tetramethylpentane;14058;C9H20;42;40;9;128.259;GUMULFRCHLJNDY-UHFFFAOYSA-N
2,3,3,4-Tetramethylpentane;141.5;CC(C)C(C)(C)C(C)C;2,3,3,4-tetramethylpentane;28028;C9H20;40;44;9;128.25899999999996;JLCYYQOQSAMWTA-UHFFFAOYSA-N
Triacontane;451.0;CCCCCCCCCCCCCCCCCCCCCCCCCCCCCC;triacontane;12535;C30H62;114;112;30;422.82600000000036;JXTPJDDICSTXJX-UHFFFAOYSA-N
Tricosane;381.0;CCCCCCCCCCCCCCCCCCCCCCC;tricosane;12534;C23H48;86;84;23;324.63700000000006;FIGVVZUWCLSUEI-UHFFFAOYSA-N
2,2,3-Trimethylbutane;80.8;CC(C)C(C)(C)C;2,2,3-trimethylbutane;10044;C7H16;30;30;7;100.20499999999998;ZISSAWUMDACLOM-UHFFFAOYSA-N
2,2,6-Trimethylheptane;149.0;CC(C)CCCC(C)(C)C;2,2,6-trimethylheptane;518457;C10H22;42;40;10;142.286;FHJCGIUZJXWNET-UHFFFAOYSA-N
2,5,5-Trimethylheptane;153.0;CCC(C)(C)CCC(C)C;2,5,5-trimethylheptane;14478;C10H22;42;42;10;142.28599999999997;SOYLPZSOEXZMLE-UHFFFAOYSA-N
3,3,5-Trimethylheptane;157.0;CCC(C)CC(C)(C)CC;3,3,5-trimethylheptane;23544;C10H22;42;43;10;142.286;VRVRZZWPKABUOE-UHFFFAOYSA-N
3,4,5-Trimethylheptane;162.5;CCC(C)C(C)C(C)CC;3,4,5-trimethylheptane;89304;C10H22;40;43;10;142.28599999999997;LJIIBBYARMPSMT-UHFFFAOYSA-N
2,2,3-Trimethylhexane;134.0;CCCC(C)C(C)(C)C;2,2,3-trimethylhexane;28021;C9H20;38;39;9;128.259;CBVFSZDQEHBJEQ-UHFFFAOYSA-N
2,2,4-Trimethylhexane;127.0;CCC(C)CC(C)(C)C;2,2,4-trimethylhexane;28022;C9H20;38;37;9;128.259;AFTPEBDOGXRMNQ-UHFFFAOYSA-N
2,2,5-Trimethylhexane;124.0;CC(C)CCC(C)(C)C;2,2,5-trimethylhexane;19041;C9H20;38;36;9;128.259;HHOSMYBYIHNXNO-UHFFFAOYSA-N
2,3,3-Trimethylhexane;137.0;CCCC(C)(C)C(C)C;2,3,3-trimethylhexane;28023;C9H20;38;40;9;128.25899999999996;DJYSEQMMCZAKGT-UHFFFAOYSA-N
2,3,4-Trimethylhexane;139.0;CCC(C)C(C)C(C)C;2,3,4-trimethylhexane;13533;C9H20;36;38;9;128.25899999999996;RUTNOQHQISEBGT-UHFFFAOYSA-N
2,3,5-Trimethylhexane;131.0;CC(C)CC(C)C(C)C;2,3,5-trimethylhexane;14045;C9H20;36;36;9;128.25899999999996;ODGLTLJZCVNPBU-UHFFFAOYSA-N
2,4,4-Trimethylhexane;130.6;CCC(C)(C)CC(C)C;2,4,4-trimethylhexane;28024;C9H20;38;38;9;128.25899999999996;SVEMKBCPZYWEPH-UHFFFAOYSA-N
3,3,4-Trimethylhexane;139.0;CCC(C)C(C)(C)CC;3,3,4-trimethylhexane;28025;C9H20;38;41;9;128.259;ARWOOWBJJKVYOV-UHFFFAOYSA-N
2,2,3-Trimethylpentane;109.8;CCC(C)C(C)(C)C;2,2,3-trimethylpentane;11255;C8H18;34;35;8;114.23199999999999;XTDQDBVBDLYELW-UHFFFAOYSA-N
2,2,4-Trimethylpentane;99.2;CC(C)CC(C)(C)C;2,2,4-trimethylpentane;10907;C8H18;34;32;8;114.23199999999999;NHTMVDHEPJAVLT-UHFFFAOYSA-N
2,3,3-Trimethylpentane;114.7;CCC(C)(C)C(C)C;2,3,3-trimethylpentane;11215;C8H18;34;36;8;114.23199999999997;OKVWYBALHQFVFP-UHFFFAOYSA-N
2,3,4-Trimethylpentane;113.4;CC(C)C(C)C(C)C;2,3,4-trimethylpentane;11269;C8H18;32;33;8;114.23199999999999;RLPGDEORIPLBNF-UHFFFAOYSA-N
Undecane;195.9;CCCCCCCCCCC;undecane;14257;C11H24;38;36;11;156.313;RSJKGSCJYJTIGS-UHFFFAOYSA-N
Decane;174.1;CCCCCCCCCC;decane;15600;C10H22;34;32;10;142.286;DIOQZVSQGTUSAI-UHFFFAOYSA-N
Nonane;150.8;CCCCCCCCC;nonane;8141;C9H20;30;28;9;128.259;BKIMMITUMNQMOS-UHFFFAOYSA-N