boiling_point;SMILES;IUPAC_name;InChIKey;SpAbs_A;SpMax_A;SpDiam_A;SpAD_A;SpMAD_A;LogEE_A;VE1_A;VE2_A;VE3_A;VR1_A;VR2_A;VR3_A;nAtom;nHeavyAtom;nH;nC;ATS0dv;ATS1dv;ATS2dv;ATS3dv;ATS4dv;ATS5dv;ATS6dv;ATS7dv;ATS8dv;ATS0d;ATS1d;ATS2d;ATS3d;ATS4d;ATS5d;ATS6d;ATS7d;ATS8d;ATS0s;ATS1s;ATS2s;ATS3s;ATS4s;ATS5s;ATS6s;ATS7s;ATS8s;ATS0Z;ATS1Z;ATS2Z;ATS3Z;ATS4Z;ATS5Z;ATS6Z;ATS7Z;ATS8Z;ATS0m;ATS1m;ATS2m;ATS3m;ATS4m;ATS5m;ATS6m;ATS7m;ATS8m;ATS0v;ATS1v;ATS2v;ATS3v;ATS4v;ATS5v;ATS6v;ATS7v;ATS8v;ATS0se;ATS1se;ATS2se;ATS3se;ATS4se;ATS5se;ATS6se;ATS7se;ATS8se;ATS0pe;ATS1pe;ATS2pe;ATS3pe;ATS4pe;ATS5pe;ATS6pe;ATS7pe;ATS8pe;ATS0are;ATS1are;ATS2are;ATS3are;ATS4are;ATS5are;ATS6are;ATS7are;ATS8are;ATS0p;ATS1p;ATS2p;ATS3p;ATS4p;ATS5p;ATS6p;ATS7p;ATS8p;ATS0i;ATS1i;ATS2i;ATS3i;ATS4i;ATS5i;ATS6i;ATS7i;ATS8i;AATS0dv;AATS1dv;AATS2dv;AATS3dv;AATS0d;AATS1d;AATS2d;AATS3d;AATS0s;AATS1s;AATS2s;AATS3s;AATS0Z;AATS1Z;AATS2Z;AATS3Z;AATS0m;AATS1m;AATS2m;AATS3m;AATS0v;AATS1v;AATS2v;AATS3v;AATS0se;AATS1se;AATS2se;AATS3se;AATS0pe;AATS1pe;AATS2pe;AATS3pe;AATS0are;AATS1are;AATS2are;AATS3are;AATS0p;AATS1p;AATS2p;AATS3p;AATS0i;AATS1i;AATS2i;AATS3i;ATSC0c;ATSC1c;ATSC2c;ATSC3c;ATSC4c;ATSC5c;ATSC6c;ATSC7c;ATSC8c;ATSC0dv;ATSC1dv;ATSC2dv;ATSC3dv;ATSC4dv;ATSC5dv;ATSC6dv;ATSC7dv;ATSC8dv;ATSC0d;ATSC1d;ATSC2d;ATSC3d;ATSC4d;ATSC5d;ATSC6d;ATSC7d;ATSC8d;ATSC0s;ATSC1s;ATSC2s;ATSC3s;ATSC4s;ATSC5s;ATSC6s;ATSC7s;ATSC8s;ATSC0Z;ATSC1Z;ATSC2Z;ATSC3Z;ATSC4Z;ATSC5Z;ATSC6Z;ATSC7Z;ATSC8Z;ATSC0m;ATSC1m;ATSC2m;ATSC3m;ATSC4m;ATSC5m;ATSC6m;ATSC7m;ATSC8m;ATSC0v;ATSC1v;ATSC2v;ATSC3v;ATSC4v;ATSC5v;ATSC6v;ATSC7v;ATSC8v;ATSC0se;ATSC1se;ATSC2se;ATSC3se;ATSC4se;ATSC5se;ATSC6se;ATSC7se;ATSC8se;ATSC0pe;ATSC1pe;ATSC2pe;ATSC3pe;ATSC4pe;ATSC5pe;ATSC6pe;ATSC7pe;ATSC8pe;ATSC0are;ATSC1are;ATSC2are;ATSC3are;ATSC4are;ATSC5are;ATSC6are;ATSC7are;ATSC8are;ATSC0p;ATSC1p;ATSC2p;ATSC3p;ATSC4p;ATSC5p;ATSC6p;ATSC7p;ATSC8p;ATSC0i;ATSC1i;ATSC2i;ATSC3i;ATSC4i;ATSC5i;ATSC6i;ATSC7i;ATSC8i;AATSC0c;AATSC1c;AATSC2c;AATSC3c;AATSC0dv;AATSC1dv;AATSC2dv;AATSC3dv;AATSC0d;AATSC1d;AATSC2d;AATSC3d;AATSC0s;AATSC1s;AATSC2s;AATSC3s;AATSC0Z;AATSC1Z;AATSC2Z;AATSC3Z;AATSC0m;AATSC1m;AATSC2m;AATSC3m;AATSC0v;AATSC1v;AATSC2v;AATSC3v;AATSC0se;AATSC1se;AATSC2se;AATSC3se;AATSC0pe;AATSC1pe;AATSC2pe;AATSC3pe;AATSC0are;AATSC1are;AATSC2are;AATSC3are;AATSC0p;AATSC1p;AATSC2p;AATSC3p;AATSC0i;AATSC1i;AATSC2i;AATSC3i;MATS1c;MATS2c;MATS3c;MATS1dv;MATS2dv;MATS3dv;MATS1s;MATS2s;MATS3s;MATS1Z;MATS2Z;MATS3Z;MATS1m;MATS2m;MATS3m;MATS1v;MATS2v;MATS3v;MATS1se;MATS2se;MATS3se;MATS1pe;MATS2pe;MATS3pe;MATS1are;MATS2are;MATS3are;MATS1p;MATS2p;MATS3p;MATS1i;MATS2i;MATS3i;GATS1c;GATS2c;GATS3c;GATS1dv;GATS2dv;GATS3dv;GATS1s;GATS2s;GATS3s;GATS1Z;GATS2Z;GATS3Z;GATS1m;GATS2m;GATS3m;GATS1v;GATS2v;GATS3v;GATS1se;GATS2se;GATS3se;GATS1pe;GATS2pe;GATS3pe;GATS1are;GATS2are;GATS3are;GATS1p;GATS2p;GATS3p;GATS1i;GATS2i;GATS3i;BCUTc-1h;BCUTc-1l;BCUTdv-1h;BCUTdv-1l;BCUTd-1h;BCUTd-1l;BCUTs-1h;BCUTs-1l;BCUTZ-1h;BCUTZ-1l;BCUTm-1h;BCUTm-1l;BCUTv-1h;BCUTv-1l;BCUTse-1h;BCUTse-1l;BCUTpe-1h;BCUTpe-1l;BCUTare-1h;BCUTare-1l;BCUTp-1h;BCUTp-1l;BCUTi-1h;BCUTi-1l;BalabanJ;SpAbs_DzZ;SpMax_DzZ;SpDiam_DzZ;SpAD_DzZ;SpMAD_DzZ;LogEE_DzZ;VE1_DzZ;VE2_DzZ;VE3_DzZ;VR1_DzZ;VR2_DzZ;VR3_DzZ;SpAbs_Dzm;SpMax_Dzm;SpDiam_Dzm;SpAD_Dzm;SpMAD_Dzm;LogEE_Dzm;VE1_Dzm;VE2_Dzm;VE3_Dzm;VR1_Dzm;VR2_Dzm;VR3_Dzm;SpAbs_Dzv;SpMax_Dzv;SpDiam_Dzv;SpAD_Dzv;SpMAD_Dzv;LogEE_Dzv;VE1_Dzv;VE2_Dzv;VE3_Dzv;VR1_Dzv;VR2_Dzv;VR3_Dzv;SpAbs_Dzse;SpMax_Dzse;SpDiam_Dzse;SpAD_Dzse;SpMAD_Dzse;LogEE_Dzse;VE1_Dzse;VE2_Dzse;VE3_Dzse;VR1_Dzse;VR2_Dzse;VR3_Dzse;SpAbs_Dzpe;SpMax_Dzpe;SpDiam_Dzpe;SpAD_Dzpe;SpMAD_Dzpe;LogEE_Dzpe;VE1_Dzpe;VE2_Dzpe;VE3_Dzpe;VR1_Dzpe;VR2_Dzpe;VR3_Dzpe;SpAbs_Dzare;SpMax_Dzare;SpDiam_Dzare;SpAD_Dzare;SpMAD_Dzare;LogEE_Dzare;VE1_Dzare;VE2_Dzare;VE3_Dzare;VR1_Dzare;VR2_Dzare;VR3_Dzare;SpAbs_Dzp;SpMax_Dzp;SpDiam_Dzp;SpAD_Dzp;SpMAD_Dzp;LogEE_Dzp;VE1_Dzp;VE2_Dzp;VE3_Dzp;VR1_Dzp;VR2_Dzp;VR3_Dzp;SpAbs_Dzi;SpMax_Dzi;SpDiam_Dzi;SpAD_Dzi;SpMAD_Dzi;LogEE_Dzi;VE1_Dzi;VE2_Dzi;VE3_Dzi;VR1_Dzi;VR2_Dzi;VR3_Dzi;BertzCT;nBonds;nBondsO;nBondsS;nBondsKS;RNCG;RPCG;C1SP3;C2SP3;C3SP3;C4SP3;Xc-3d;Xc-4d;Xc-5d;Xc-6d;Xc-3dv;Xc-4dv;Xc-5dv;Xc-6dv;Xpc-4d;Xpc-5d;Xpc-6d;Xpc-4dv;Xpc-5dv;Xpc-6dv;Xp-0d;Xp-1d;Xp-2d;Xp-3d;Xp-4d;Xp-5d;Xp-6d;Xp-7d;AXp-0d;AXp-1d;Xp-0dv;Xp-1dv;Xp-2dv;Xp-3dv;Xp-4dv;Xp-5dv;Xp-6dv;Xp-7dv;AXp-0dv;AXp-1dv;SZ;Sm;Sv;Sse;Spe;Sare;Sp;Si;MZ;Mm;Mv;Mse;Mpe;Mare;Mp;Mi;SpAbs_D;SpMax_D;SpDiam_D;SpAD_D;SpMAD_D;LogEE_D;VE1_D;VE2_D;VE3_D;VR1_D;VR2_D;VR3_D;NsCH3;NssCH2;NsssCH;NssssC;SsCH3;SssCH2;SsssCH;SssssC;MAXsCH3;MINsCH3;ECIndex;ETA_alpha;ETA_shape_p;ETA_shape_y;ETA_shape_x;ETA_beta;AETA_beta;ETA_beta_s;AETA_beta_s;ETA_eta;AETA_eta;ETA_eta_L;AETA_eta_L;ETA_eta_R;AETA_eta_R;ETA_eta_RL;AETA_eta_RL;ETA_eta_B;AETA_eta_B;ETA_eta_BR;AETA_eta_BR;ETA_epsilon_1;ETA_epsilon_2;ETA_epsilon_3;ETA_epsilon_4;ETA_epsilon_5;ETA_dBeta;AETA_dBeta;ETA_psi_1;ETA_dPsi_B;fragCpx;IC0;IC1;IC2;IC3;IC4;IC5;TIC0;TIC1;TIC2;TIC3;TIC4;TIC5;SIC0;SIC1;SIC2;SIC3;SIC4;SIC5;BIC0;BIC1;BIC2;BIC3;BIC4;BIC5;CIC0;CIC1;CIC2;CIC3;CIC4;CIC5;MIC0;MIC1;MIC2;MIC3;MIC4;MIC5;ZMIC0;ZMIC1;ZMIC2;ZMIC3;ZMIC4;ZMIC5;Kier1;Lipinski;GhoseFilter;FilterItLogS;VMcGowan;LabuteASA;PEOE_VSA6;PEOE_VSA7;SMR_VSA4;SMR_VSA5;SlogP_VSA4;SlogP_VSA5;EState_VSA3;EState_VSA4;EState_VSA5;EState_VSA7;EState_VSA8;VSA_EState4;VSA_EState5;VSA_EState7;VSA_EState8;MDEC-11;MID;AMID;MID_C;AMID_C;MPC2;MPC3;MPC4;MPC5;MPC6;MPC7;MPC8;MPC9;MPC10;TMPC10;piPC1;piPC2;piPC3;piPC4;piPC5;piPC6;piPC7;piPC8;piPC9;piPC10;TpiPC10;apol;bpol;nRot;RotRatio;SLogP;SMR;GGI1;GGI2;GGI3;GGI4;GGI5;GGI6;GGI7;GGI8;GGI9;GGI10;JGI1;JGI2;JGI3;JGI4;JGI5;JGI6;JGI7;JGI8;JGI9;JGI10;JGT10;Diameter;Radius;TopoShapeIndex;PetitjeanIndex;Vabc;VAdjMat;MWC01;MWC02;MWC03;MWC04;MWC05;MWC06;MWC07;MWC08;MWC09;MWC10;TMWC10;SRW02;SRW04;SRW06;SRW08;SRW10;TSRW10;MW;AMW;WPath;WPol;Zagreb1;Zagreb2;mZagreb1;mZagreb2
165.0;CCCCCC(CC)CC;3-ethyloctane;OEYGTUAKNZFCDJ-UHFFFAOYSA-N;11.985228431751901;2.0490708244265243;4.098141648853048;11.985228431751901;1.1985228431751902;3.1151006080459887;2.825902434786671;0.28259024347866707;1.038827759528597;36.125040522597246;3.6125040522597245;3.586986268164763;32.0;10.0;22.0;10.0;36.0;36.0;34.0;28.0;21.0;15.0;8.0;2.0;0.0;58.0;72.0;121.0;140.0;127.0;113.0;87.0;57.0;36.0;49.27777777777778;59.08333333333333;92.58333333333333;114.41666666666666;118.16666666666666;110.83333333333333;84.0;65.0;48.0;382.0;456.0;555.0;576.0;526.0;416.0;313.0;215.0;96.0;1464.9946180000002;1564.733025;1749.4732169999997;1770.8105609999998;1528.6785429999995;1153.4542369999997;881.0067879999998;554.0394739999999;169.670592;4919.011394973762;6335.857675895378;8408.42647154659;9061.185104596127;8610.930277717682;7156.8409875641755;5368.371711093148;3856.692252820428;2122.84926278855;223.21136800000002;224.45254800000004;424.876356;565.9640999999999;565.916668;561.07922;435.333136;311.958344;246.65472;171.505;181.9425;333.0825;434.72249999999997;434.47749999999996;424.99249999999995;328.51;236.52500000000003;183.48000000000002;168.98000000000002;177.25;326.85;428.49;428.31;420.21000000000004;325.08;233.82000000000002;182.16000000000003;37.670483906678;49.59807482;71.856888732735;81.193759734564;79.180911164866;69.140885733356;52.104252299413;38.074783011527;24.033241436375995;5336.131905433478;4509.845254493801;9427.325702838136;13310.596395347366;13299.662569970467;13670.269996329756;10717.826598941014;7569.145662995727;6275.494221136776;1.125;1.1612903225806452;0.5666666666666667;0.345679012345679;1.8125;2.3225806451612905;2.0166666666666666;1.728395061728395;1.5399305555555556;1.9059139784946235;1.5430555555555554;1.412551440329218;11.9375;14.709677419354838;9.25;7.111111111111111;45.781081812500005;50.47525887096774;29.157886949999995;21.861858777777776;153.71910609293008;204.38250567404444;140.14044119244318;111.86648277279168;6.975355250000001;7.240404774193549;7.0812726;6.98721111111111;5.35953125;5.8691129032258065;5.551374999999999;5.366944444444444;5.280625000000001;5.717741935483871;5.447500000000001;5.29;1.1772026220836875;1.5999378974193548;1.19761481221225;1.0023920954884444;166.7541220447962;145.4788791772194;157.12209504730225;164.328350559844;0.045806215446657056;-0.006104907803733849;-0.01604049390274258;0.0031741438531836517;-0.010085471775364839;-0.001246970568447213;0.006605264213126477;-0.005379891917856361;-0.0033802570319410564;25.875;5.30859375;-7.765625;-7.12109375;-7.37109375;0.12890625;-2.44140625;-4.01171875;4.640625;8.0;2.9375;-2.75;-3.4375;-1.4375;-0.4375;-2.0625;-0.1875;2.25;3.3576388888888897;-1.0495876736111092;-1.0039062499999991;0.6520182291666665;-0.38964843749999967;-0.5354817708333339;0.7073567708333326;0.20019531249999997;-0.9648437500000003;171.875;-11.81640625;-50.390625;0.87890625;-49.12109375;-5.37109375;19.43359375;-27.63671875;-5.859375;832.3288118749999;-57.22260581640611;-244.02367439062485;4.256226878906276;-237.87579112109364;-26.010275371093794;94.10990543359367;-133.83468963671874;-28.374845859375064;1547.7509673946556;-106.40787900838225;-453.7724427134329;7.914635628722735;-442.3401912497226;-48.36721773108312;175.0013877906456;-248.87132032539077;-52.764237524817986;0.1630474999999998;-0.011209515625000693;-0.047802562500000506;0.0008337656249998845;-0.04659823437500006;-0.005095234374999698;0.0184354843750003;-0.02621729687499983;-0.005558437499999635;0.8421874999999983;-0.05790039062500069;-0.24691406250000017;0.004306640624999844;-0.24069335937499967;-0.026318359374999628;0.09522460937500016;-0.13541992187499957;-0.028710937499999534;0.6187499999999992;-0.042539062500000294;-0.18140625000000007;0.0031640624999999395;-0.17683593749999985;-0.01933593749999984;0.06996093750000007;-0.09949218749999982;-0.0210937499999998;6.919166958336874;-0.4756927283856631;-2.028573949148768;0.03538210376422224;-1.9774664659337777;-0.216223967448026;0.7823376276755911;-1.1125705961416672;-0.23588069176148263;37.58502473308684;-2.5839704503997742;-11.019245887655046;0.19219614920327643;-10.741629227694713;-1.174532022908941;4.2496704101615475;-6.043501136058839;-1.2813076613552066;0.001431444232708033;-0.0001969325097978661;-0.0002673415650457097;3.9186961150415456e-05;0.80859375;0.17124495967741934;-0.12942708333333333;-0.08791473765432099;0.25;0.09475806451612903;-0.04583333333333333;-0.04243827160493827;0.1049262152777778;-0.03385766689068094;-0.01673177083333332;0.008049607767489711;5.37109375;-0.3811743951612903;-0.83984375;0.010850694444444444;26.010275371093748;-1.8458905102066487;-4.067061239843747;0.05254601085069476;48.36721773108299;-3.432512226076847;-7.562874045223881;0.09771155097188562;0.005095234374999993;-0.00036159727822582884;-0.0007967093750000084;1.0293402777776351e-05;0.026318359374999947;-0.001867754536290345;-0.004115234375000003;5.316840277777585e-05;0.019335937499999976;-0.0013722278225806546;-0.0030234375000000014;3.9062499999999255e-05;0.2162239674480273;-0.015344926722118166;-0.03380956581914614;0.00043681609585459556;1.1745320229089637;-0.08335388549676691;-0.1836540981275841;0.0023727919654725487;-0.13757609643325433;-0.1867635210209677;0.027375821044932244;0.211781206171108;-0.1600644122383253;-0.1087254726546192;-0.32268072188677915;-0.15946225439503603;0.07671684093607566;-0.07096774193548387;-0.15636363636363637;0.00202020202020202;-0.0709677419354837;-0.1563636363636363;0.0020202020202020328;-0.07096774193548366;-0.1563636363636363;0.0020202020202020367;-0.07096774193548835;-0.1563636363636382;0.0020202020202017426;-0.07096774193548486;-0.1563636363636368;0.002020202020201951;-0.07096774193548444;-0.15636363636363662;0.002020202020201984;-0.07096774193548433;-0.15636363636363662;0.0020202020202019968;-0.07096774193548536;-0.15636363636363693;0.0020202020202019304;1.667666628221041;1.3043263898417223;0.927781101430155;1.391304347826087;1.6573268921095008;1.3163953002922406;1.927611168562564;1.064322647362978;0.6934007430387986;1.6;1.3527272727272728;1.002020202020202;1.6000000000000003;1.352727272727273;1.0020202020202025;1.6000000000000005;1.352727272727273;1.0020202020202023;1.6;1.352727272727273;1.002020202020202;1.6000000000000003;1.3527272727272728;1.002020202020202;1.6000000000000003;1.3527272727272728;1.0020202020202023;1.6;1.352727272727273;1.0020202020202023;1.5999999999999999;1.3527272727272726;1.002020202020202;0.21067014766140962;-0.20975121299943694;3.029464950358787;0.9871434974241019;3.029464950358787;0.9871434974241019;2.0275041026754446;1.217866912763954;6.213089264824443;5.793205930378126;12.224089264824444;11.804205930378156;20.79261554093997;20.37273220649365;2.9590892648244487;2.5392059303781314;2.7630892648244467;2.3432059303781307;2.7130892648244487;2.293205930378133;1.8830892648244475;1.4632059303781306;11.473389264824453;11.05350593037812;3.0869007633902013;60.421600310886575;30.21080015544328;45.93889968234295;60.42160031088656;6.042160031088656;30.210800155443565;3.1066298560493184;0.31066298560493183;1.1335384910480277;31.465309971732495;3.1465309971732496;3.4488856682487423;60.421600310886575;30.21080015544328;45.93889968234295;60.42160031088656;6.042160031088656;30.210800155443565;3.1066298560493184;0.31066298560493183;1.1335384910480277;31.465309971732495;3.1465309971732496;3.4488856682487423;60.421600310886575;30.21080015544328;45.93889968234295;60.42160031088656;6.042160031088656;30.210800155443565;3.1066298560493184;0.31066298560493183;1.1335384910480277;31.465309971732495;3.1465309971732496;3.4488856682487423;60.421600310886575;30.21080015544328;45.93889968234295;60.42160031088656;6.042160031088656;30.210800155443565;3.1066298560493184;0.31066298560493183;1.1335384910480277;31.465309971732495;3.1465309971732496;3.4488856682487423;60.421600310886575;30.21080015544328;45.93889968234295;60.42160031088656;6.042160031088656;30.210800155443565;3.1066298560493184;0.31066298560493183;1.1335384910480277;31.465309971732495;3.1465309971732496;3.4488856682487423;60.421600310886575;30.21080015544328;45.93889968234295;60.42160031088656;6.042160031088656;30.210800155443565;3.1066298560493184;0.31066298560493183;1.1335384910480277;31.465309971732495;3.1465309971732496;3.4488856682487423;60.421600310886575;30.21080015544328;45.93889968234295;60.42160031088656;6.042160031088656;30.210800155443565;3.1066298560493184;0.31066298560493183;1.1335384910480277;31.465309971732495;3.1465309971732496;3.4488856682487423;60.421600310886575;30.21080015544328;45.93889968234295;60.42160031088656;6.042160031088656;30.210800155443565;3.1066298560493184;0.31066298560493183;1.1335384910480277;31.465309971732495;3.1465309971732496;3.4488856682487423;53.058650025961626;31.0;9.0;31.0;31.0;0.11728456841629346;0.05425905142486726;3.0;6.0;1.0;0.0;0.2041241452319315;0.0;0.0;0.0;0.2041241452319315;0.0;0.0;0.0;0.5525858577612694;0.5948613524427102;0.42063049617804116;0.5525858577612694;0.5948613524427102;0.42063049617804116;7.819990956308912;4.846065214951232;3.1783039004935256;2.37062636466832;1.3799361269508952;0.6371368471241508;0.408248290463863;0.2041241452319315;0.7819990956308912;0.5384516905501369;7.819990956308912;4.846065214951232;3.1783039004935256;2.37062636466832;1.3799361269508952;0.6371368471241508;0.408248290463863;0.2041241452319315;0.7819990956308912;0.5384516905501369;13.666666666666668;11.846307551411208;15.96010584164462;30.766205389657685;28.98039215686275;29.360000000000003;18.784099401197608;36.568186105165935;0.42708333333333337;0.37019711098160024;0.49875330755139435;0.9614439184268027;0.9056372549019609;0.9175000000000001;0.5870031062874252;1.1427558157864355;60.421600310886575;30.21080015544328;45.93889968234295;60.42160031088656;6.042160031088656;30.210800155443565;3.1066298560493184;0.31066298560493183;1.1335384910480277;31.465309971732495;3.1465309971732496;3.4488856682487423;3.0;6.0;1.0;0.0;6.882066326530612;8.445202191987907;1.0060648148148146;0.0;2.3056670445956158;2.2707322373393803;98.0;5.0;0.3;0.1;0.0;4.5;0.45;4.5;0.45;11.533510816755335;1.1533510816755335;4.846065214951232;0.48460652149512323;11.533510816755335;1.1533510816755335;4.846065214951232;0.48460652149512323;0.06814834742186271;0.006814834742186271;0.06814834742186271;0.006814834742186271;0.425;0.7;0.425;0.425;0.7;-4.5;-0.45;0.7142857142857143;0.00028571428571433355;9.0;0.8960382325345574;1.300870058859033;2.3655074211313076;3.1084585933443494;3.741729296672175;3.741729296672175;28.673223441105836;41.627841883489054;75.69623747620184;99.47067498701918;119.7353374935096;119.7353374935096;0.17920764650691148;0.2601740117718066;0.4731014842262615;0.6216917186688699;0.748345859334435;0.748345859334435;0.1808644987797396;0.26257943314269827;0.4774755122585331;0.6274395277448359;0.7552646407707615;0.7552646407707615;4.103961767465442;3.699129941140967;2.6344925788686924;1.8915414066556506;1.2582707033278249;1.2582707033278249;6.673151904630568;11.535586970613844;15.190930630928339;18.950138762091104;19.588475631045554;19.588475631045554;39.639944988972836;31.177975668276126;28.73167186688699;21.413627340099147;18.958646483360873;18.958646483360873;10.0;1.0;0.0;-3.493302638111995;151.76000000000002;66.02373005739902;59.296141336627926;5.917906046161393;5.917906046161393;59.296141336627926;5.917906046161393;59.296141336627926;0.0;5.917906046161393;38.524929737556064;0.0;20.771211599071872;0.0;1.0060648148148146;8.445202191987907;6.882066326530612;0.516459056608978;18.6633756781792;1.86633756781792;18.6633756781792;1.86633756781792;9.0;9.0;7.0;5.0;4.0;2.0;0.0;0.0;0.0;55.0;2.302585092994046;2.302585092994046;2.302585092994046;2.0794415416798357;1.791759469228055;1.6094379124341003;1.0986122886681098;0.0;0.0;0.0;4.02535169073515;31.369446;22.070553999999998;6.0;0.6666666666666666;4.002900000000003;48.21400000000003;1.5;0.666666666666667;0.375;0.16000000000000003;0.1111111111111111;0.0816326530612245;0.0;0.0;0.0;0.0;0.16666666666666669;0.07407407407407411;0.04166666666666667;0.02285714285714286;0.02222222222222222;0.020408163265306124;0.0;0.0;0.0;0.0;0.3478949357520786;7.0;4.0;0.75;0.42857142857142855;181.5163111863147;4.169925001442312;9.0;3.6109179126442243;4.290459441148391;4.990432586778736;5.6937321388027;6.405228458030842;7.115582126184454;7.830822995135316;8.543835122362658;9.2605580881368;76.74156886922412;2.9444389791664403;4.007333185232471;5.262690188904886;6.5998704992128365;7.975564658495202;36.78989751101183;142.172150704;4.4428797095;145.0;9.0;36.0;36.0;4.611111111111111;2.75