boiling_point;SMILES;IUPAC_name;InChIKey;SpAbs_A;SpMax_A;SpDiam_A;SpAD_A;SpMAD_A;LogEE_A;VE1_A;VE2_A;VE3_A;VR1_A;VR2_A;VR3_A;nAtom;nHeavyAtom;nH;nC;ATS0dv;ATS1dv;ATS2dv;ATS3dv;ATS4dv;ATS5dv;ATS6dv;ATS7dv;ATS8dv;ATS0d;ATS1d;ATS2d;ATS3d;ATS4d;ATS5d;ATS6d;ATS7d;ATS8d;ATS0s;ATS1s;ATS2s;ATS3s;ATS4s;ATS5s;ATS6s;ATS7s;ATS8s;ATS0Z;ATS1Z;ATS2Z;ATS3Z;ATS4Z;ATS5Z;ATS6Z;ATS7Z;ATS8Z;ATS0m;ATS1m;ATS2m;ATS3m;ATS4m;ATS5m;ATS6m;ATS7m;ATS8m;ATS0v;ATS1v;ATS2v;ATS3v;ATS4v;ATS5v;ATS6v;ATS7v;ATS8v;ATS0se;ATS1se;ATS2se;ATS3se;ATS4se;ATS5se;ATS6se;ATS7se;ATS8se;ATS0pe;ATS1pe;ATS2pe;ATS3pe;ATS4pe;ATS5pe;ATS6pe;ATS7pe;ATS8pe;ATS0are;ATS1are;ATS2are;ATS3are;ATS4are;ATS5are;ATS6are;ATS7are;ATS8are;ATS0p;ATS1p;ATS2p;ATS3p;ATS4p;ATS5p;ATS6p;ATS7p;ATS8p;ATS0i;ATS1i;ATS2i;ATS3i;ATS4i;ATS5i;ATS6i;ATS7i;ATS8i;AATS0dv;AATS1dv;AATS2dv;AATS3dv;AATS0d;AATS1d;AATS2d;AATS3d;AATS0s;AATS1s;AATS2s;AATS3s;AATS0Z;AATS1Z;AATS2Z;AATS3Z;AATS0m;AATS1m;AATS2m;AATS3m;AATS0v;AATS1v;AATS2v;AATS3v;AATS0se;AATS1se;AATS2se;AATS3se;AATS0pe;AATS1pe;AATS2pe;AATS3pe;AATS0are;AATS1are;AATS2are;AATS3are;AATS0p;AATS1p;AATS2p;AATS3p;AATS0i;AATS1i;AATS2i;AATS3i;ATSC0c;ATSC1c;ATSC2c;ATSC3c;ATSC4c;ATSC5c;ATSC6c;ATSC7c;ATSC8c;ATSC0dv;ATSC1dv;ATSC2dv;ATSC3dv;ATSC4dv;ATSC5dv;ATSC6dv;ATSC7dv;ATSC8dv;ATSC0d;ATSC1d;ATSC2d;ATSC3d;ATSC4d;ATSC5d;ATSC6d;ATSC7d;ATSC8d;ATSC0s;ATSC1s;ATSC2s;ATSC3s;ATSC4s;ATSC5s;ATSC6s;ATSC7s;ATSC8s;ATSC0Z;ATSC1Z;ATSC2Z;ATSC3Z;ATSC4Z;ATSC5Z;ATSC6Z;ATSC7Z;ATSC8Z;ATSC0m;ATSC1m;ATSC2m;ATSC3m;ATSC4m;ATSC5m;ATSC6m;ATSC7m;ATSC8m;ATSC0v;ATSC1v;ATSC2v;ATSC3v;ATSC4v;ATSC5v;ATSC6v;ATSC7v;ATSC8v;ATSC0se;ATSC1se;ATSC2se;ATSC3se;ATSC4se;ATSC5se;ATSC6se;ATSC7se;ATSC8se;ATSC0pe;ATSC1pe;ATSC2pe;ATSC3pe;ATSC4pe;ATSC5pe;ATSC6pe;ATSC7pe;ATSC8pe;ATSC0are;ATSC1are;ATSC2are;ATSC3are;ATSC4are;ATSC5are;ATSC6are;ATSC7are;ATSC8are;ATSC0p;ATSC1p;ATSC2p;ATSC3p;ATSC4p;ATSC5p;ATSC6p;ATSC7p;ATSC8p;ATSC0i;ATSC1i;ATSC2i;ATSC3i;ATSC4i;ATSC5i;ATSC6i;ATSC7i;ATSC8i;AATSC0c;AATSC1c;AATSC2c;AATSC3c;AATSC0dv;AATSC1dv;AATSC2dv;AATSC3dv;AATSC0d;AATSC1d;AATSC2d;AATSC3d;AATSC0s;AATSC1s;AATSC2s;AATSC3s;AATSC0Z;AATSC1Z;AATSC2Z;AATSC3Z;AATSC0m;AATSC1m;AATSC2m;AATSC3m;AATSC0v;AATSC1v;AATSC2v;AATSC3v;AATSC0se;AATSC1se;AATSC2se;AATSC3se;AATSC0pe;AATSC1pe;AATSC2pe;AATSC3pe;AATSC0are;AATSC1are;AATSC2are;AATSC3are;AATSC0p;AATSC1p;AATSC2p;AATSC3p;AATSC0i;AATSC1i;AATSC2i;AATSC3i;MATS1c;MATS2c;MATS3c;MATS1dv;MATS2dv;MATS3dv;MATS1s;MATS2s;MATS3s;MATS1Z;MATS2Z;MATS3Z;MATS1m;MATS2m;MATS3m;MATS1v;MATS2v;MATS3v;MATS1se;MATS2se;MATS3se;MATS1pe;MATS2pe;MATS3pe;MATS1are;MATS2are;MATS3are;MATS1p;MATS2p;MATS3p;MATS1i;MATS2i;MATS3i;GATS1c;GATS2c;GATS3c;GATS1dv;GATS2dv;GATS3dv;GATS1s;GATS2s;GATS3s;GATS1Z;GATS2Z;GATS3Z;GATS1m;GATS2m;GATS3m;GATS1v;GATS2v;GATS3v;GATS1se;GATS2se;GATS3se;GATS1pe;GATS2pe;GATS3pe;GATS1are;GATS2are;GATS3are;GATS1p;GATS2p;GATS3p;GATS1i;GATS2i;GATS3i;BCUTc-1h;BCUTc-1l;BCUTdv-1h;BCUTdv-1l;BCUTd-1h;BCUTd-1l;BCUTs-1h;BCUTs-1l;BCUTZ-1h;BCUTZ-1l;BCUTm-1h;BCUTm-1l;BCUTv-1h;BCUTv-1l;BCUTse-1h;BCUTse-1l;BCUTpe-1h;BCUTpe-1l;BCUTare-1h;BCUTare-1l;BCUTp-1h;BCUTp-1l;BCUTi-1h;BCUTi-1l;BalabanJ;SpAbs_DzZ;SpMax_DzZ;SpDiam_DzZ;SpAD_DzZ;SpMAD_DzZ;LogEE_DzZ;VE1_DzZ;VE2_DzZ;VE3_DzZ;VR1_DzZ;VR2_DzZ;VR3_DzZ;SpAbs_Dzm;SpMax_Dzm;SpDiam_Dzm;SpAD_Dzm;SpMAD_Dzm;LogEE_Dzm;VE1_Dzm;VE2_Dzm;VE3_Dzm;VR1_Dzm;VR2_Dzm;VR3_Dzm;SpAbs_Dzv;SpMax_Dzv;SpDiam_Dzv;SpAD_Dzv;SpMAD_Dzv;LogEE_Dzv;VE1_Dzv;VE2_Dzv;VE3_Dzv;VR1_Dzv;VR2_Dzv;VR3_Dzv;SpAbs_Dzse;SpMax_Dzse;SpDiam_Dzse;SpAD_Dzse;SpMAD_Dzse;LogEE_Dzse;VE1_Dzse;VE2_Dzse;VE3_Dzse;VR1_Dzse;VR2_Dzse;VR3_Dzse;SpAbs_Dzpe;SpMax_Dzpe;SpDiam_Dzpe;SpAD_Dzpe;SpMAD_Dzpe;LogEE_Dzpe;VE1_Dzpe;VE2_Dzpe;VE3_Dzpe;VR1_Dzpe;VR2_Dzpe;VR3_Dzpe;SpAbs_Dzare;SpMax_Dzare;SpDiam_Dzare;SpAD_Dzare;SpMAD_Dzare;LogEE_Dzare;VE1_Dzare;VE2_Dzare;VE3_Dzare;VR1_Dzare;VR2_Dzare;VR3_Dzare;SpAbs_Dzp;SpMax_Dzp;SpDiam_Dzp;SpAD_Dzp;SpMAD_Dzp;LogEE_Dzp;VE1_Dzp;VE2_Dzp;VE3_Dzp;VR1_Dzp;VR2_Dzp;VR3_Dzp;SpAbs_Dzi;SpMax_Dzi;SpDiam_Dzi;SpAD_Dzi;SpMAD_Dzi;LogEE_Dzi;VE1_Dzi;VE2_Dzi;VE3_Dzi;VR1_Dzi;VR2_Dzi;VR3_Dzi;BertzCT;nBonds;nBondsO;nBondsS;nBondsKS;RNCG;RPCG;C1SP3;C2SP3;C3SP3;C4SP3;Xc-3d;Xc-4d;Xc-5d;Xc-6d;Xc-3dv;Xc-4dv;Xc-5dv;Xc-6dv;Xpc-4d;Xpc-5d;Xpc-6d;Xpc-4dv;Xpc-5dv;Xpc-6dv;Xp-0d;Xp-1d;Xp-2d;Xp-3d;Xp-4d;Xp-5d;Xp-6d;Xp-7d;AXp-0d;AXp-1d;Xp-0dv;Xp-1dv;Xp-2dv;Xp-3dv;Xp-4dv;Xp-5dv;Xp-6dv;Xp-7dv;AXp-0dv;AXp-1dv;SZ;Sm;Sv;Sse;Spe;Sare;Sp;Si;MZ;Mm;Mv;Mse;Mpe;Mare;Mp;Mi;SpAbs_D;SpMax_D;SpDiam_D;SpAD_D;SpMAD_D;LogEE_D;VE1_D;VE2_D;VE3_D;VR1_D;VR2_D;VR3_D;NsCH3;NssCH2;NsssCH;NssssC;SsCH3;SssCH2;SsssCH;SssssC;MAXsCH3;MINsCH3;ECIndex;ETA_alpha;ETA_shape_p;ETA_shape_y;ETA_shape_x;ETA_beta;AETA_beta;ETA_beta_s;AETA_beta_s;ETA_eta;AETA_eta;ETA_eta_L;AETA_eta_L;ETA_eta_R;AETA_eta_R;ETA_eta_RL;AETA_eta_RL;ETA_eta_B;AETA_eta_B;ETA_eta_BR;AETA_eta_BR;ETA_epsilon_1;ETA_epsilon_2;ETA_epsilon_3;ETA_epsilon_4;ETA_epsilon_5;ETA_dBeta;AETA_dBeta;ETA_psi_1;ETA_dPsi_B;fragCpx;IC0;IC1;IC2;IC3;IC4;IC5;TIC0;TIC1;TIC2;TIC3;TIC4;TIC5;SIC0;SIC1;SIC2;SIC3;SIC4;SIC5;BIC0;BIC1;BIC2;BIC3;BIC4;BIC5;CIC0;CIC1;CIC2;CIC3;CIC4;CIC5;MIC0;MIC1;MIC2;MIC3;MIC4;MIC5;ZMIC0;ZMIC1;ZMIC2;ZMIC3;ZMIC4;ZMIC5;Kier1;Lipinski;GhoseFilter;FilterItLogS;VMcGowan;LabuteASA;PEOE_VSA6;PEOE_VSA7;SMR_VSA4;SMR_VSA5;SlogP_VSA4;SlogP_VSA5;EState_VSA3;EState_VSA4;EState_VSA5;EState_VSA7;EState_VSA8;VSA_EState4;VSA_EState5;VSA_EState7;VSA_EState8;MDEC-11;MID;AMID;MID_C;AMID_C;MPC2;MPC3;MPC4;MPC5;MPC6;MPC7;MPC8;MPC9;MPC10;TMPC10;piPC1;piPC2;piPC3;piPC4;piPC5;piPC6;piPC7;piPC8;piPC9;piPC10;TpiPC10;apol;bpol;nRot;RotRatio;SLogP;SMR;GGI1;GGI2;GGI3;GGI4;GGI5;GGI6;GGI7;GGI8;GGI9;GGI10;JGI1;JGI2;JGI3;JGI4;JGI5;JGI6;JGI7;JGI8;JGI9;JGI10;JGT10;Diameter;Radius;TopoShapeIndex;PetitjeanIndex;Vabc;VAdjMat;MWC01;MWC02;MWC03;MWC04;MWC05;MWC06;MWC07;MWC08;MWC09;MWC10;TMWC10;SRW02;SRW04;SRW06;SRW08;SRW10;TSRW10;MW;AMW;WPath;WPol;Zagreb1;Zagreb2;mZagreb1;mZagreb2
246.0;CC(CC(C)(C)C)CC(C)(C)CC(C)(C)C;2,2,4,4,6,8,8-heptamethylnonane;VCLJODPNBNEBKW-UHFFFAOYSA-N;15.23299576892202;2.3142329817842633;4.628465963568527;15.23299576892202;0.9520622355576263;3.64054124762211;3.5840095607643523;0.22400059754777202;1.7464857919788437;63.955509111122296;3.9972193194451435;4.628191300723891;50.0;16.0;34.0;16.0;78.0;79.0;79.0;73.0;61.0;49.0;37.0;24.0;9.0;112.0;121.0;263.0;242.0;370.0;216.0;312.0;135.0;198.0;83.21527777777777;98.5;157.72916666666666;245.95833333333331;287.3958333333333;259.5;258.0625;183.0;175.5;610.0;744.0;1146.0;1255.0;1271.0;1109.0;937.0;729.0;549.0;2342.7721120000006;2575.6028069999998;4001.3185199999994;3671.332239999999;4068.7263349999994;3008.600626999999;2879.3889759999993;1891.7246939999995;1635.1841609999997;7833.117738640902;10253.79848283758;15915.855862473603;19844.357672503873;19922.69501238354;18496.557073548604;15557.463260242961;12458.730885497916;9513.709308832142;349.07603199999994;355.107228;681.466848;964.8522879999998;1490.05382;1022.8048759999999;1417.4465919999998;703.5903599999999;982.042308;268.59999999999997;288.27750000000003;536.88;766.2399999999999;1122.1775;804.5675;1054.66;553.815;725.7825;264.55999999999995;280.75;526.2;749.88;1110.87;789.03;1046.88;543.0600000000001;721.53;59.739238764866016;79.69400654;127.04084816547;172.451653053943;183.401560893407;167.40745934243301;152.28713260129302;114.27263818364099;97.163607447333;8315.909866264466;7108.0819635886;15021.741110829273;20472.858605454545;37015.62181518262;22300.553536098632;36266.94768748569;15287.319012641841;25532.720350479336;1.56;1.6122448979591837;0.8229166666666666;0.5407407407407407;2.24;2.4693877551020407;2.7395833333333335;1.7925925925925925;1.6643055555555555;2.010204081632653;1.6430121527777777;1.8219135802469135;12.2;15.183673469387756;11.9375;9.296296296296296;46.85544224000001;52.56332259183673;41.680401249999996;27.19505362962962;156.66235477281805;209.26119352729754;165.79016523410004;146.9952420185472;6.9815206399999985;7.247086285714286;7.098613;7.147053985185184;5.371999999999999;5.883214285714287;5.5925;5.675851851851851;5.291199999999999;5.729591836734694;5.48125;5.554666666666667;1.1947847752973204;1.626408296734694;1.3233421683903124;1.2774196522514296;166.31819732528933;145.0628972160939;156.4764699044716;151.6508044848485;0.06520374708934618;-0.01616768993309771;0.04204706373517551;-0.10886687194811173;0.10587824729413521;-0.12216830408833966;0.10903814604758388;-0.09561357794463557;0.0848143559954666;59.999999999999986;24.639999999999993;-26.839999999999996;-22.400000000000002;-1.6400000000000023;-21.559999999999995;14.32;-19.560000000000002;6.840000000000003;30.079999999999995;4.161599999999999;-9.793600000000005;-5.296000000000001;-5.705599999999999;-1.1904000000000003;-1.6511999999999998;-2.3183999999999987;-3.8303999999999974;7.365138888888887;-4.937419444444441;7.7614333333333345;-13.584624999999992;14.630933333333324;-15.642016666666658;14.137074999999989;-12.299224999999993;11.515899999999991;272.00000000000006;-11.560000000000008;125.75999999999998;-406.4;359.96000000000004;-460.36;401.9200000000001;-364.56;305.64;1317.1981779199996;-55.980922561599925;609.0104516735998;-1968.0490423039996;1743.1568239855997;-2229.3579161295997;1946.3540134912;-1765.4329696415996;1480.1045996303997;2449.386258218742;-104.0989159742972;1132.4809405646652;-3659.6712328680046;3241.4745496633045;-4145.586242035222;3619.3284003796953;-3282.897993736121;2752.317705742562;0.2580300799999997;-0.010966278400002308;0.11930096639999783;-0.3855272960000037;0.3414724544000026;-0.43671591040000274;0.3812773888000043;-0.34583619840000196;0.28994232960000366;1.332799999999997;-0.05664399999999727;0.6162240000000011;-1.9913599999999914;1.7638039999999933;-2.2557639999999917;1.9694079999999907;-1.7863439999999937;1.4976359999999924;0.9791999999999988;-0.041616000000001374;0.4527359999999983;-1.4630400000000008;1.2958560000000001;-1.657296;1.446912000000001;-1.3124159999999998;1.100304000000001;10.949896219157122;-0.46537058931417813;5.062716722504408;-16.360433174505346;14.490899422969843;-18.53269935092343;16.180081942660404;-14.676081491382059;12.304140736849934;59.48001005032505;-2.5279004271386643;27.50075758797395;-88.87013266342657;78.71479565336381;-100.66991701017494;87.89046190965647;-79.72070758803847;66.83628776390177;0.0013040749417869235;-0.00032995285577750425;0.0004379902472414116;-0.0008064212736897165;1.1999999999999997;0.5028571428571427;-0.2795833333333333;-0.16592592592592595;0.6015999999999999;0.08493061224489794;-0.10201666666666671;-0.039229629629629635;0.14730277777777773;-0.1007636621315192;0.0808482638888889;-0.10062685185185179;5.440000000000001;-0.23591836734693894;1.3099999999999998;-3.0103703703703704;26.34396355839999;-1.1424678073795904;6.343858871599998;-14.578141054103702;48.987725164374844;-2.124467672944841;11.796676464215262;-27.108675799022258;0.005160601599999994;-0.0002238016000000471;0.0012427183999999774;-0.0028557577481481754;0.026655999999999944;-0.0011559999999999444;0.0064190000000000115;-0.014750814814814751;0.019583999999999976;-0.0008493061224490076;0.004715999999999982;-0.01083733333333334;0.21899792438314244;-0.009497358965595473;0.05273663252608759;-0.12118839388522479;1.189600201006501;-0.05158980463548295;0.28646622487472867;-0.658297278988345;-0.2530167900668213;0.33586278917471607;-0.6183856830993997;0.41904761904761895;-0.23298611111111112;-0.13827160493827165;-0.6840581260696397;0.5488577005034984;-0.6831293568927691;-0.04336734693877553;0.24080882352941166;-0.5533769063180827;-0.04336734693877547;0.24080882352941177;-0.5533769063180829;-0.04336734693877579;0.2408088235294117;-0.5533769063180831;-0.04336734693878469;0.24080882352940766;-0.5533769063180887;-0.04336734693877352;0.2408088235294127;-0.5533769063180817;-0.04336734693877699;0.24080882352941116;-0.5533769063180837;-0.04336734693877556;0.2408088235294117;-0.5533769063180828;-0.043367346938772935;0.24080882352941296;-0.5533769063180812;1.7777532162925735;0.6947236563556625;1.9612511042863732;1.2833333333333334;2.5435763888888894;1.119135802469136;2.298742197665429;0.2526624582775463;2.0574905554822207;1.5624999999999998;0.9851792279411763;1.8681917211328973;1.5625000000000007;0.9851792279411767;1.8681917211328982;1.5625000000000002;0.9851792279411768;1.868191721132898;1.5625;0.9851792279411765;1.8681917211328978;1.5625000000000004;0.9851792279411766;1.8681917211328978;1.5625000000000002;0.9851792279411765;1.8681917211328976;1.5624999999999996;0.9851792279411763;1.8681917211328969;1.5625000000000004;0.9851792279411767;1.868191721132898;0.24206840638755833;-0.25188886829023915;4.024207855053568;0.987127283215611;4.024207855053568;0.987127283215611;2.0545845789223134;1.1407309564237629;6.251625540549191;5.760809979590643;12.262625540549177;11.771809979590614;20.83115181666469;20.34033625570615;2.997625540549187;2.5068099795906362;2.80162554054918;2.3108099795906347;2.751625540549182;2.2608099795906345;1.9216255405491824;1.430809979590632;11.511925540549173;11.021109979590637;4.258424922755684;120.61829492713315;60.30914746356657;90.52427398395204;120.61829492713312;7.53864343294582;60.30914746356657;3.945793375787085;0.24661208598669282;1.8426536725220766;66.5929824887251;4.162061405545319;4.668602833203317;120.61829492713315;60.30914746356657;90.52427398395204;120.61829492713312;7.53864343294582;60.30914746356657;3.945793375787085;0.24661208598669282;1.8426536725220766;66.5929824887251;4.162061405545319;4.668602833203317;120.61829492713315;60.30914746356657;90.52427398395204;120.61829492713312;7.53864343294582;60.30914746356657;3.945793375787085;0.24661208598669282;1.8426536725220766;66.5929824887251;4.162061405545319;4.668602833203317;120.61829492713315;60.30914746356657;90.52427398395204;120.61829492713312;7.53864343294582;60.30914746356657;3.945793375787085;0.24661208598669282;1.8426536725220766;66.5929824887251;4.162061405545319;4.668602833203317;120.61829492713315;60.30914746356657;90.52427398395204;120.61829492713312;7.53864343294582;60.30914746356657;3.945793375787085;0.24661208598669282;1.8426536725220766;66.5929824887251;4.162061405545319;4.668602833203317;120.61829492713315;60.30914746356657;90.52427398395204;120.61829492713312;7.53864343294582;60.30914746356657;3.945793375787085;0.24661208598669282;1.8426536725220766;66.5929824887251;4.162061405545319;4.668602833203317;120.61829492713315;60.30914746356657;90.52427398395204;120.61829492713312;7.53864343294582;60.30914746356657;3.945793375787085;0.24661208598669282;1.8426536725220766;66.5929824887251;4.162061405545319;4.668602833203317;120.61829492713315;60.30914746356657;90.52427398395204;120.61829492713312;7.53864343294582;60.30914746356657;3.945793375787085;0.24661208598669282;1.8426536725220766;66.5929824887251;4.162061405545319;4.668602833203317;197.0586500259616;49.0;15.0;49.0;49.0;0.0751414551909681;0.036115419740766354;9.0;3.0;1.0;3.0;4.617102259341004;0.9571067811865475;0.0;0.0;4.617102259341004;0.9571067811865475;0.0;0.0;2.3509536313039;6.293131055488908;5.3319499178181164;2.3509536313039;6.293131055488908;5.3319499178181164;13.19867061274927;6.808060412490447;8.975730607215777;2.870765194998925;3.568705941637291;0.7515811254542948;0.9812207888402178;0.15309310892394865;0.8249169132968294;0.4538706941660298;13.19867061274927;6.808060412490447;8.975730607215777;2.870765194998925;3.568705941637291;0.7515811254542948;0.9812207888402178;0.15309310892394865;0.8249169132968294;0.4538706941660298;21.666666666666664;18.8533843976355;25.211072664359868;48.09322651128915;45.333333333333336;45.92;29.575426347305395;57.05992398071099;0.4333333333333333;0.37706768795271;0.5042214532871974;0.9618645302257831;0.9066666666666667;0.9184;0.5915085269461079;1.1411984796142198;120.61829492713315;60.30914746356657;90.52427398395204;120.61829492713312;7.53864343294582;60.30914746356657;3.945793375787085;0.24661208598669282;1.8426536725220766;66.5929824887251;4.162061405545319;4.668602833203317;9.0;3.0;1.0;3.0;21.36188421201814;3.996622732426304;0.8308796296296294;1.3939467592592591;2.427986111111111;2.347478387188209;189.0;8.0;0.5625;0.0625;0.1875;7.5;0.46875;7.5;0.46875;27.573764939095984;1.723360308693499;6.808060412490447;0.42550377578065296;27.573764939095984;1.723360308693499;6.808060412490447;0.42550377578065296;1.1061531498826476;0.06913457186766547;1.1061531498826476;0.06913457186766547;0.428;0.7;0.428;0.428;0.7;-7.5;-0.46875;0.7142857142857143;0.00028571428571433355;15.0;0.9043814577244937;1.4235994573783386;2.2060214385199126;2.7977809392987614;3.3871944390391455;3.747194439039145;45.21907288622469;71.17997286891693;110.30107192599563;139.88904696493807;169.35972195195728;187.35972195195725;0.16024176153939038;0.2522387902012014;0.3908713057778969;0.495721514727404;0.6001560502508739;0.6639422254996747;0.16107358756434728;0.25354817914062233;0.39290034565758536;0.49829483926602597;0.6032715016590345;0.6673887953384784;4.739474732050231;4.220256732396386;3.4378347512548117;2.846075250475963;2.256661750735579;1.8966617507355794;6.6995683993355035;12.935895793177835;15.933781499977286;18.838753989310174;20.753242797048486;21.116122797048483;63.36307636776333;46.354898479603506;42.74841249603166;35.441049411619154;30.12584431151498;28.590307261317967;16.0;0.0;0.0;-4.781056744352935;236.3;104.21338274377865;62.3136347972156;41.42534232312976;22.162877454351733;81.57609966599364;22.162877454351733;81.57609966599364;16.244971408190338;5.917906046161393;19.26246486877803;0.0;62.3136347972156;1.3939467592592591;0.8308796296296294;3.996622732426304;21.36188421201814;7.825206482448319;29.44381357841619;1.8402383486510119;29.44381357841619;1.8402383486510119;24.0;16.0;23.0;11.0;16.0;6.0;9.0;0.0;0.0;136.0;2.772588722239781;3.2188758248682006;2.833213344056216;3.1780538303479458;2.4849066497880004;2.833213344056216;1.9459101490553132;2.302585092994046;0.0;0.0;4.919980925828125;49.390961999999995;34.109038;4.0;0.26666666666666666;5.911200000000006;75.70600000000007;9.0;1.5555555555555565;2.375;0.40000000000000013;0.7777777777777777;0.12244897959183675;0.28125;0.0;0.0;0.0;0.6000000000000001;0.06481481481481485;0.1484375;0.017391304347826087;0.0707070707070707;0.007653061224489797;0.046875;0.0;0.0;0.0;0.9558787510942014;8.0;4.0;1.0;0.5;285.29222252945857;4.906890595608519;15.0;4.3694478524670215;5.0689042022202315;6.018593214496234;6.729824070489475;7.682021510826875;8.398184404834035;9.350884616968491;10.069637382330217;11.022572178834904;99.71006943346748;3.4339872044851463;4.844187086458591;6.3473892096560105;7.902117546276448;9.488047863280759;48.01572891015695;226.26605108799998;4.52532102176;468.0;16.0;78.0;79.0;10.04861111111111;3.166666666666667