boiling_point;SMILES;IUPAC_name;InChIKey;SpAbs_A;SpMax_A;SpDiam_A;SpAD_A;SpMAD_A;LogEE_A;VE1_A;VE2_A;VE3_A;VR1_A;VR2_A;VR3_A;nAtom;nHeavyAtom;nH;nC;ATS0dv;ATS1dv;ATS2dv;ATS3dv;ATS4dv;ATS5dv;ATS6dv;ATS7dv;ATS8dv;ATS0d;ATS1d;ATS2d;ATS3d;ATS4d;ATS5d;ATS6d;ATS7d;ATS8d;ATS0s;ATS1s;ATS2s;ATS3s;ATS4s;ATS5s;ATS6s;ATS7s;ATS8s;ATS0Z;ATS1Z;ATS2Z;ATS3Z;ATS4Z;ATS5Z;ATS6Z;ATS7Z;ATS8Z;ATS0m;ATS1m;ATS2m;ATS3m;ATS4m;ATS5m;ATS6m;ATS7m;ATS8m;ATS0v;ATS1v;ATS2v;ATS3v;ATS4v;ATS5v;ATS6v;ATS7v;ATS8v;ATS0se;ATS1se;ATS2se;ATS3se;ATS4se;ATS5se;ATS6se;ATS7se;ATS8se;ATS0pe;ATS1pe;ATS2pe;ATS3pe;ATS4pe;ATS5pe;ATS6pe;ATS7pe;ATS8pe;ATS0are;ATS1are;ATS2are;ATS3are;ATS4are;ATS5are;ATS6are;ATS7are;ATS8are;ATS0p;ATS1p;ATS2p;ATS3p;ATS4p;ATS5p;ATS6p;ATS7p;ATS8p;ATS0i;ATS1i;ATS2i;ATS3i;ATS4i;ATS5i;ATS6i;ATS7i;ATS8i;AATS0dv;AATS1dv;AATS2dv;AATS3dv;AATS0d;AATS1d;AATS2d;AATS3d;AATS0s;AATS1s;AATS2s;AATS3s;AATS0Z;AATS1Z;AATS2Z;AATS3Z;AATS0m;AATS1m;AATS2m;AATS3m;AATS0v;AATS1v;AATS2v;AATS3v;AATS0se;AATS1se;AATS2se;AATS3se;AATS0pe;AATS1pe;AATS2pe;AATS3pe;AATS0are;AATS1are;AATS2are;AATS3are;AATS0p;AATS1p;AATS2p;AATS3p;AATS0i;AATS1i;AATS2i;AATS3i;ATSC0c;ATSC1c;ATSC2c;ATSC3c;ATSC4c;ATSC5c;ATSC6c;ATSC7c;ATSC8c;ATSC0dv;ATSC1dv;ATSC2dv;ATSC3dv;ATSC4dv;ATSC5dv;ATSC6dv;ATSC7dv;ATSC8dv;ATSC0d;ATSC1d;ATSC2d;ATSC3d;ATSC4d;ATSC5d;ATSC6d;ATSC7d;ATSC8d;ATSC0s;ATSC1s;ATSC2s;ATSC3s;ATSC4s;ATSC5s;ATSC6s;ATSC7s;ATSC8s;ATSC0Z;ATSC1Z;ATSC2Z;ATSC3Z;ATSC4Z;ATSC5Z;ATSC6Z;ATSC7Z;ATSC8Z;ATSC0m;ATSC1m;ATSC2m;ATSC3m;ATSC4m;ATSC5m;ATSC6m;ATSC7m;ATSC8m;ATSC0v;ATSC1v;ATSC2v;ATSC3v;ATSC4v;ATSC5v;ATSC6v;ATSC7v;ATSC8v;ATSC0se;ATSC1se;ATSC2se;ATSC3se;ATSC4se;ATSC5se;ATSC6se;ATSC7se;ATSC8se;ATSC0pe;ATSC1pe;ATSC2pe;ATSC3pe;ATSC4pe;ATSC5pe;ATSC6pe;ATSC7pe;ATSC8pe;ATSC0are;ATSC1are;ATSC2are;ATSC3are;ATSC4are;ATSC5are;ATSC6are;ATSC7are;ATSC8are;ATSC0p;ATSC1p;ATSC2p;ATSC3p;ATSC4p;ATSC5p;ATSC6p;ATSC7p;ATSC8p;ATSC0i;ATSC1i;ATSC2i;ATSC3i;ATSC4i;ATSC5i;ATSC6i;ATSC7i;ATSC8i;AATSC0c;AATSC1c;AATSC2c;AATSC3c;AATSC0dv;AATSC1dv;AATSC2dv;AATSC3dv;AATSC0d;AATSC1d;AATSC2d;AATSC3d;AATSC0s;AATSC1s;AATSC2s;AATSC3s;AATSC0Z;AATSC1Z;AATSC2Z;AATSC3Z;AATSC0m;AATSC1m;AATSC2m;AATSC3m;AATSC0v;AATSC1v;AATSC2v;AATSC3v;AATSC0se;AATSC1se;AATSC2se;AATSC3se;AATSC0pe;AATSC1pe;AATSC2pe;AATSC3pe;AATSC0are;AATSC1are;AATSC2are;AATSC3are;AATSC0p;AATSC1p;AATSC2p;AATSC3p;AATSC0i;AATSC1i;AATSC2i;AATSC3i;MATS1c;MATS2c;MATS3c;MATS1dv;MATS2dv;MATS3dv;MATS1s;MATS2s;MATS3s;MATS1Z;MATS2Z;MATS3Z;MATS1m;MATS2m;MATS3m;MATS1v;MATS2v;MATS3v;MATS1se;MATS2se;MATS3se;MATS1pe;MATS2pe;MATS3pe;MATS1are;MATS2are;MATS3are;MATS1p;MATS2p;MATS3p;MATS1i;MATS2i;MATS3i;GATS1c;GATS2c;GATS3c;GATS1dv;GATS2dv;GATS3dv;GATS1s;GATS2s;GATS3s;GATS1Z;GATS2Z;GATS3Z;GATS1m;GATS2m;GATS3m;GATS1v;GATS2v;GATS3v;GATS1se;GATS2se;GATS3se;GATS1pe;GATS2pe;GATS3pe;GATS1are;GATS2are;GATS3are;GATS1p;GATS2p;GATS3p;GATS1i;GATS2i;GATS3i;BCUTc-1h;BCUTc-1l;BCUTdv-1h;BCUTdv-1l;BCUTd-1h;BCUTd-1l;BCUTs-1h;BCUTs-1l;BCUTZ-1h;BCUTZ-1l;BCUTm-1h;BCUTm-1l;BCUTv-1h;BCUTv-1l;BCUTse-1h;BCUTse-1l;BCUTpe-1h;BCUTpe-1l;BCUTare-1h;BCUTare-1l;BCUTp-1h;BCUTp-1l;BCUTi-1h;BCUTi-1l;BalabanJ;SpAbs_DzZ;SpMax_DzZ;SpDiam_DzZ;SpAD_DzZ;SpMAD_DzZ;LogEE_DzZ;VE1_DzZ;VE2_DzZ;VE3_DzZ;VR1_DzZ;VR2_DzZ;VR3_DzZ;SpAbs_Dzm;SpMax_Dzm;SpDiam_Dzm;SpAD_Dzm;SpMAD_Dzm;LogEE_Dzm;VE1_Dzm;VE2_Dzm;VE3_Dzm;VR1_Dzm;VR2_Dzm;VR3_Dzm;SpAbs_Dzv;SpMax_Dzv;SpDiam_Dzv;SpAD_Dzv;SpMAD_Dzv;LogEE_Dzv;VE1_Dzv;VE2_Dzv;VE3_Dzv;VR1_Dzv;VR2_Dzv;VR3_Dzv;SpAbs_Dzse;SpMax_Dzse;SpDiam_Dzse;SpAD_Dzse;SpMAD_Dzse;LogEE_Dzse;VE1_Dzse;VE2_Dzse;VE3_Dzse;VR1_Dzse;VR2_Dzse;VR3_Dzse;SpAbs_Dzpe;SpMax_Dzpe;SpDiam_Dzpe;SpAD_Dzpe;SpMAD_Dzpe;LogEE_Dzpe;VE1_Dzpe;VE2_Dzpe;VE3_Dzpe;VR1_Dzpe;VR2_Dzpe;VR3_Dzpe;SpAbs_Dzare;SpMax_Dzare;SpDiam_Dzare;SpAD_Dzare;SpMAD_Dzare;LogEE_Dzare;VE1_Dzare;VE2_Dzare;VE3_Dzare;VR1_Dzare;VR2_Dzare;VR3_Dzare;SpAbs_Dzp;SpMax_Dzp;SpDiam_Dzp;SpAD_Dzp;SpMAD_Dzp;LogEE_Dzp;VE1_Dzp;VE2_Dzp;VE3_Dzp;VR1_Dzp;VR2_Dzp;VR3_Dzp;SpAbs_Dzi;SpMax_Dzi;SpDiam_Dzi;SpAD_Dzi;SpMAD_Dzi;LogEE_Dzi;VE1_Dzi;VE2_Dzi;VE3_Dzi;VR1_Dzi;VR2_Dzi;VR3_Dzi;BertzCT;nBonds;nBondsO;nBondsS;nBondsKS;RNCG;RPCG;C1SP3;C2SP3;C3SP3;C4SP3;Xc-3d;Xc-4d;Xc-5d;Xc-6d;Xc-3dv;Xc-4dv;Xc-5dv;Xc-6dv;Xpc-4d;Xpc-5d;Xpc-6d;Xpc-4dv;Xpc-5dv;Xpc-6dv;Xp-0d;Xp-1d;Xp-2d;Xp-3d;Xp-4d;Xp-5d;Xp-6d;Xp-7d;AXp-0d;AXp-1d;Xp-0dv;Xp-1dv;Xp-2dv;Xp-3dv;Xp-4dv;Xp-5dv;Xp-6dv;Xp-7dv;AXp-0dv;AXp-1dv;SZ;Sm;Sv;Sse;Spe;Sare;Sp;Si;MZ;Mm;Mv;Mse;Mpe;Mare;Mp;Mi;SpAbs_D;SpMax_D;SpDiam_D;SpAD_D;SpMAD_D;LogEE_D;VE1_D;VE2_D;VE3_D;VR1_D;VR2_D;VR3_D;NsCH3;NssCH2;NsssCH;NssssC;SsCH3;SssCH2;SsssCH;SssssC;MAXsCH3;MINsCH3;ECIndex;ETA_alpha;ETA_shape_p;ETA_shape_y;ETA_shape_x;ETA_beta;AETA_beta;ETA_beta_s;AETA_beta_s;ETA_eta;AETA_eta;ETA_eta_L;AETA_eta_L;ETA_eta_R;AETA_eta_R;ETA_eta_RL;AETA_eta_RL;ETA_eta_B;AETA_eta_B;ETA_eta_BR;AETA_eta_BR;ETA_epsilon_1;ETA_epsilon_2;ETA_epsilon_3;ETA_epsilon_4;ETA_epsilon_5;ETA_dBeta;AETA_dBeta;ETA_psi_1;ETA_dPsi_B;fragCpx;IC0;IC1;IC2;IC3;IC4;IC5;TIC0;TIC1;TIC2;TIC3;TIC4;TIC5;SIC0;SIC1;SIC2;SIC3;SIC4;SIC5;BIC0;BIC1;BIC2;BIC3;BIC4;BIC5;CIC0;CIC1;CIC2;CIC3;CIC4;CIC5;MIC0;MIC1;MIC2;MIC3;MIC4;MIC5;ZMIC0;ZMIC1;ZMIC2;ZMIC3;ZMIC4;ZMIC5;Kier1;Lipinski;GhoseFilter;FilterItLogS;VMcGowan;LabuteASA;PEOE_VSA6;PEOE_VSA7;SMR_VSA4;SMR_VSA5;SlogP_VSA4;SlogP_VSA5;EState_VSA3;EState_VSA4;EState_VSA5;EState_VSA7;EState_VSA8;VSA_EState4;VSA_EState5;VSA_EState7;VSA_EState8;MDEC-11;MID;AMID;MID_C;AMID_C;MPC2;MPC3;MPC4;MPC5;MPC6;MPC7;MPC8;MPC9;MPC10;TMPC10;piPC1;piPC2;piPC3;piPC4;piPC5;piPC6;piPC7;piPC8;piPC9;piPC10;TpiPC10;apol;bpol;nRot;RotRatio;SLogP;SMR;GGI1;GGI2;GGI3;GGI4;GGI5;GGI6;GGI7;GGI8;GGI9;GGI10;JGI1;JGI2;JGI3;JGI4;JGI5;JGI6;JGI7;JGI8;JGI9;JGI10;JGT10;Diameter;Radius;TopoShapeIndex;PetitjeanIndex;Vabc;VAdjMat;MWC01;MWC02;MWC03;MWC04;MWC05;MWC06;MWC07;MWC08;MWC09;MWC10;TMWC10;SRW02;SRW04;SRW06;SRW08;SRW10;TSRW10;MW;AMW;WPath;WPol;Zagreb1;Zagreb2;mZagreb1;mZagreb2
146.2;CCC(CC)(CC)CC;3,3-diethylpentane;BGXXXYLRPIRDHJ-UHFFFAOYSA-N;10.47213595499958;2.23606797749979;4.47213595499958;10.47213595499958;1.16357066166662;3.031187770203936;2.6791246264404474;0.2976805140489386;0.8801295935839067;25.37691032257353;2.81965670250817;3.128479202518671;29.0;9.0;20.0;9.0;36.0;40.0;40.0;24.0;6.0;0.0;0.0;0.0;0.0;56.0;68.0;120.0;144.0;126.0;108.0;54.0;0.0;0.0;46.5625;55.5;83.5;111.0;150.0;144.0;54.0;0.0;0.0;344.0;408.0;544.0;672.0;600.0;288.0;54.0;0.0;0.0;1318.6983689999995;1396.2547279999994;1797.896698;2191.410156;1616.3955420000002;509.0117760000001;54.86745599999999;0.0;0.0;4433.327004362572;5682.86754140501;7945.1341867627025;9958.730876672955;10171.308259069423;6368.5477883656495;1678.522199270234;0.0;0.0;202.2339240000001;202.676768;382.19427999999994;507.96407999999997;633.5441519999999;739.9641599999999;362.797056;0.0;0.0;155.32250000000002;164.22;299.54499999999996;396.15;491.775;550.4399999999999;261.35999999999996;0.0;0.0;153.05;160.0;293.94;389.15999999999997;483.65999999999997;546.48;261.35999999999996;0.0;0.0;33.992358096980006;44.5820862;66.182047157584;84.22510487637601;94.216768316376;72.099724309128;24.009096861846;0.0;0.0;4839.50224529498;4076.8058029780004;8514.057329249184;11471.967639326376;14386.142647895977;18826.48266341033;9985.553209309446;0.0;0.0;1.2413793103448276;1.4285714285714286;0.7407407407407407;0.3333333333333333;1.9310344827586208;2.4285714285714284;2.2222222222222223;2.0;1.605603448275862;1.9821428571428572;1.5462962962962963;1.5416666666666667;11.862068965517242;14.571428571428571;10.074074074074074;9.333333333333334;45.47235755172412;49.86624028571426;33.294383296296296;30.436252166666666;152.8733449780197;202.95955505017895;147.1321145696797;138.31570662045772;6.9735835862068996;7.238456;7.077671851851851;7.055056666666666;5.35594827586207;5.865;5.547129629629629;5.502083333333333;5.277586206896552;5.714285714285714;5.443333333333333;5.404999999999999;1.172150279206207;1.5922173642857143;1.2255934658811851;1.1697931232830001;166.8793877687924;145.6002072492143;157.66772831942933;159.332883879533;0.04015366545614654;-0.009506610196624854;-0.0020157606396314373;0.013037296066248108;-0.041185071625228775;-0.00911111090450191;0.028704424571665596;0.0;0.0;27.17241379310344;13.212841854934597;-3.1486325802615918;-26.910820451843037;-26.19024970273484;13.01307966706302;16.43757431629013;0.0;0.0;11.310344827586206;6.872770511296077;-5.3365041617122495;-13.184304399524377;-3.4458977407847793;6.292508917954818;3.146254458977409;0.0;0.0;3.7155172413793114;-1.587395957193816;-0.8107907253269915;2.232164090368609;-1.457639714625445;-2.742271105826398;2.508174791914386;0.0;0.0;155.17241379310346;-11.890606420927492;7.609988109393553;7.847800237812109;-191.91438763376937;-19.26278240190246;130.0237812128419;0.0;0.0;751.4441937931032;-57.58193055885829;36.85243555766963;38.0040741688468;-929.3723592199758;-93.28272750535108;629.6584106611172;0.0;0.0;1397.342566174485;-107.07605871068861;68.52867757484039;70.67019874905424;-1728.2075875905132;-173.4632151113151;1170.8767020013797;0.0;0.0;0.14720275862068946;-0.011279904875146948;0.007219139120096411;0.007444737217599459;-0.18205766468489726;-0.018273445897743545;0.12334575980974716;0.0;0.0;0.7603448275862053;-0.05826397146254696;0.037288941736026496;0.03845422116527733;-0.9403804994054699;-0.09438763376931791;0.6371165279429283;0.0;0.0;0.5586206896551719;-0.0428061831153408;0.027395957193815323;0.028252080856122033;-0.6908917954815704;-0.06934601664684564;0.4680856123662337;0.0;0.0;6.246771423200688;-0.4786798025441109;0.30635507362823516;0.3159286696791177;-7.7258920130619995;-0.77546128012147;5.234363640819882;0.0;0.0;33.932561514511;-2.6001962846370503;1.664125622167439;1.7161295478601701;-41.96716803403905;-4.212317981111391;28.43314637250439;0.0;0.0;0.0013846091536602256;-0.0003395217927366019;-3.7328900733915506e-05;0.00018107355647566816;0.9369797859690842;0.471887209104807;-0.05830801074558503;-0.37376139516448664;0.3900118906064209;0.2454560896891456;-0.09882415114281944;-0.183115338882283;0.12812128418549348;-0.056692712756922004;-0.015014643061610954;0.03100227903289735;5.35077288941736;-0.4246645150331247;0.14092570572951024;0.10899722552516818;25.911868751486317;-2.056497519959225;0.6824525103272153;0.5278343634562055;48.184226419809825;-3.824144953953165;1.2690495847192664;0.9815305381813089;0.005075957193816878;-0.00040285374554096246;0.0001336877614832669;0.00010339912802221471;0.026218787158145008;-0.0020808561236623914;0.0006905359580745647;0.0005340864050732962;0.01926278240190248;-0.001528792254119314;0.0005073325406262097;0.0003923900118905838;0.2154059111448513;-0.017095707233718248;0.005673242104226577;0.0043878981899877455;1.1700883280865861;-0.09286415302275179;0.03081714115124887;0.02383513260916903;-0.24521128712682078;-0.026959882964254753;0.13077593485280573;0.5036258158085569;-0.0622297424327881;-0.39890016920473775;-0.4424925422605233;-0.11719085675002143;0.24197602474864652;-0.07936507936507951;0.026337448559670688;0.020370370370370317;-0.07936507936507911;0.026337448559670924;0.020370370370370476;-0.07936507936507944;0.02633744855967068;0.02037037037037032;-0.07936507936506763;0.026337448559675514;0.020370370370374122;-0.07936507936508276;0.026337448559669397;0.0203703703703693;-0.07936507936508298;0.026337448559669307;0.020370370370369213;-0.07936507936507886;0.026337448559670972;0.020370370370370525;-0.07936507936508522;0.026337448559668405;0.020370370370368516;1.781602419345251;1.0564367362631122;0.8790198183205926;1.1776649746192895;2.0990787742056787;2.1467851099830804;2.052204176334106;0.9594397181404141;0.5102474864655838;1.6111111111111112;1.1695473251028807;1.1277777777777778;1.6111111111111116;1.1695473251028814;1.1277777777777784;1.6111111111111116;1.1695473251028812;1.1277777777777782;1.6111111111111116;1.1695473251028812;1.127777777777778;1.6111111111111112;1.169547325102881;1.127777777777778;1.6111111111111107;1.1695473251028803;1.1277777777777775;1.6111111111111112;1.1695473251028807;1.127777777777778;1.611111111111111;1.1695473251028807;1.127777777777778;0.2239770207430622;-0.2375080705621949;4.019890433524219;0.9872569003884859;4.019890433524219;0.9872569003884859;2.0300856206170246;1.1365595626052514;6.2324463055674455;5.772992510914056;12.243446305567442;11.783992510914059;20.811972581682998;20.352518787029545;2.978446305567444;2.5189925109140563;2.7824463055674427;2.3229925109140543;2.732446305567442;2.272992510914052;1.9024463055674439;1.4429925109140556;11.492746305567445;11.033292510914048;3.824684203207495;40.78460969082653;20.392304845413264;25.628372822913057;40.78460969082653;4.531623298980725;20.392304849902462;2.9433756729740645;0.3270417414415627;0.9741965951153713;28.05050146752883;3.116722385280981;3.2286459937813374;40.78460969082653;20.392304845413264;25.628372822913057;40.78460969082653;4.531623298980725;20.392304849902462;2.9433756729740645;0.3270417414415627;0.9741965951153713;28.05050146752883;3.116722385280981;3.2286459937813374;40.78460969082653;20.392304845413264;25.628372822913057;40.78460969082653;4.531623298980725;20.392304849902462;2.9433756729740645;0.3270417414415627;0.9741965951153713;28.05050146752883;3.116722385280981;3.2286459937813374;40.78460969082653;20.392304845413264;25.628372822913057;40.78460969082653;4.531623298980725;20.392304849902462;2.9433756729740645;0.3270417414415627;0.9741965951153713;28.05050146752883;3.116722385280981;3.2286459937813374;40.78460969082653;20.392304845413264;25.628372822913057;40.78460969082653;4.531623298980725;20.392304849902462;2.9433756729740645;0.3270417414415627;0.9741965951153713;28.05050146752883;3.116722385280981;3.2286459937813374;40.78460969082653;20.392304845413264;25.628372822913057;40.78460969082653;4.531623298980725;20.392304849902462;2.9433756729740645;0.3270417414415627;0.9741965951153713;28.05050146752883;3.116722385280981;3.2286459937813374;40.78460969082653;20.392304845413264;25.628372822913057;40.78460969082653;4.531623298980725;20.392304849902462;2.9433756729740645;0.3270417414415627;0.9741965951153713;28.05050146752883;3.116722385280981;3.2286459937813374;40.78460969082653;20.392304845413264;25.628372822913057;40.78460969082653;4.531623298980725;20.392304849902462;2.9433756729740645;0.3270417414415627;0.9741965951153713;28.05050146752883;3.116722385280981;3.2286459937813374;42.928786893420316;28.0;8.0;28.0;28.0;0.1317695749936945;0.05473301772667594;4.0;4.0;0.0;1.0;0.7071067811865476;0.125;0.0;0.0;0.7071067811865476;0.125;0.0;0.0;2.1213203435596433;2.6213203435596433;1.4571067811865475;2.1213203435596433;2.6213203435596433;1.4571067811865475;7.328427124746191;4.242640687119286;2.9142135623730954;3.0;1.5;0.0;0.0;0.0;0.8142696805273545;0.5303300858899107;7.328427124746191;4.242640687119286;2.9142135623730954;3.0;1.5;0.0;0.0;0.0;0.8142696805273545;0.5303300858899107;12.33333333333333;10.678461410373828;14.418278037858745;27.87836853605244;26.254901960784316;26.599999999999998;16.985544910179645;33.15289645924176;0.425287356321839;0.3682228072542699;0.49718200130547396;0.9613230529673256;0.9053414469235971;0.9172413793103448;0.5857084451786084;1.1432033261807504;40.78460969082653;20.392304845413264;25.628372822913057;40.78460969082653;4.531623298980725;20.392304849902462;2.9433756729740645;0.3270417414415627;0.9741965951153713;28.05050146752883;3.116722385280981;3.2286459937813374;4.0;4.0;0.0;1.0;9.208333333333334;5.375;0.0;0.6666666666666667;2.3020833333333335;2.3020833333333335;48.0;4.5;0.4444444444444444;0.0;0.1111111111111111;4.0;0.4444444444444444;4.0;0.4444444444444444;11.071067811865476;1.2301186457628306;4.242640687119286;0.47140452079103173;11.071067811865476;1.2301186457628306;4.242640687119286;0.47140452079103173;0.17157287525380926;0.01906365280597881;0.17157287525380926;0.01906365280597881;0.4241379310344827;0.7;0.4241379310344827;0.4241379310344827;0.7;-4.0;-0.4444444444444444;0.7142857142857143;0.00028571428571433355;8.0;0.8935711016541907;1.3256167917569774;1.9952378913808868;1.9952378913808868;1.9952378913808868;1.9952378913808868;25.91356194797153;38.44288696095234;57.86189885004572;57.86189885004572;57.86189885004572;57.86189885004572;0.18393878085369605;0.27287401763953717;0.410713399945792;0.410713399945792;0.410713399945792;0.410713399945792;0.18587583320595183;0.27574764361055293;0.4150386072445223;0.4150386072445223;0.4150386072445223;0.4150386072445223;3.9644098934733814;3.5323642033705944;2.862743103746685;2.862743103746685;2.862743103746685;2.862743103746685;6.664965218283638;11.854266002108208;12.529244070529108;12.529244070529108;12.529244070529108;12.529244070529108;35.68332320783173;27.32073783211528;30.34847185923958;30.34847185923958;30.34847185923958;30.34847185923958;9.0;1.0;0.0;-3.056954700395046;137.67000000000004;59.658787943002416;53.378235290466534;5.41499046939678;5.41499046939678;53.378235290466534;5.41499046939678;53.378235290466534;5.41499046939678;0.0;25.683286491704038;0.0;27.694948798762496;0.6666666666666667;0.0;5.375;9.208333333333334;1.5;16.428300858899107;1.8253667620999008;16.428300858899107;1.8253667620999008;10.0;12.0;6.0;0.0;0.0;0.0;0.0;0.0;0.0;45.0;2.1972245773362196;2.3978952727983707;2.5649493574615367;1.9459101490553132;0.0;0.0;0.0;0.0;0.0;0.0;3.828641396489095;28.365859999999998;20.06414;4.0;0.5;3.6128000000000027;43.59700000000001;3.0;1.3333333333333337;0.75;0.0;0.0;0.0;0.0;0.0;0.0;0.0;0.375;0.13333333333333336;0.0625;0.0;0.0;0.0;0.0;0.0;0.0;0.0;0.5708333333333334;4.0;2.0;1.0;0.5;164.22032596245742;4.0;8.0;3.6109179126442243;4.394449154672439;5.198497031265826;5.993961427306569;6.803505257608338;7.601402334583733;8.412054873292933;9.210440366976517;10.021315031649332;78.24654338999991;2.833213344056216;4.04305126783455;5.54907608489522;7.136483208590247;8.741456115998364;37.30328002137459;128.15650064;4.419189677241379;88.0;12.0;36.0;40.0;5.0625;2.5