boiling_point;SMILES;IUPAC_name;InChIKey;SpAbs_A;SpMax_A;SpDiam_A;SpAD_A;SpMAD_A;LogEE_A;VE1_A;VE2_A;VE3_A;VR1_A;VR2_A;VR3_A;nAtom;nHeavyAtom;nH;nC;ATS0dv;ATS1dv;ATS2dv;ATS3dv;ATS4dv;ATS5dv;ATS6dv;ATS7dv;ATS8dv;ATS0d;ATS1d;ATS2d;ATS3d;ATS4d;ATS5d;ATS6d;ATS7d;ATS8d;ATS0s;ATS1s;ATS2s;ATS3s;ATS4s;ATS5s;ATS6s;ATS7s;ATS8s;ATS0Z;ATS1Z;ATS2Z;ATS3Z;ATS4Z;ATS5Z;ATS6Z;ATS7Z;ATS8Z;ATS0m;ATS1m;ATS2m;ATS3m;ATS4m;ATS5m;ATS6m;ATS7m;ATS8m;ATS0v;ATS1v;ATS2v;ATS3v;ATS4v;ATS5v;ATS6v;ATS7v;ATS8v;ATS0se;ATS1se;ATS2se;ATS3se;ATS4se;ATS5se;ATS6se;ATS7se;ATS8se;ATS0pe;ATS1pe;ATS2pe;ATS3pe;ATS4pe;ATS5pe;ATS6pe;ATS7pe;ATS8pe;ATS0are;ATS1are;ATS2are;ATS3are;ATS4are;ATS5are;ATS6are;ATS7are;ATS8are;ATS0p;ATS1p;ATS2p;ATS3p;ATS4p;ATS5p;ATS6p;ATS7p;ATS8p;ATS0i;ATS1i;ATS2i;ATS3i;ATS4i;ATS5i;ATS6i;ATS7i;ATS8i;AATS0dv;AATS1dv;AATS2dv;AATS3dv;AATS0d;AATS1d;AATS2d;AATS3d;AATS0s;AATS1s;AATS2s;AATS3s;AATS0Z;AATS1Z;AATS2Z;AATS3Z;AATS0m;AATS1m;AATS2m;AATS3m;AATS0v;AATS1v;AATS2v;AATS3v;AATS0se;AATS1se;AATS2se;AATS3se;AATS0pe;AATS1pe;AATS2pe;AATS3pe;AATS0are;AATS1are;AATS2are;AATS3are;AATS0p;AATS1p;AATS2p;AATS3p;AATS0i;AATS1i;AATS2i;AATS3i;ATSC0c;ATSC1c;ATSC2c;ATSC3c;ATSC4c;ATSC5c;ATSC6c;ATSC7c;ATSC8c;ATSC0dv;ATSC1dv;ATSC2dv;ATSC3dv;ATSC4dv;ATSC5dv;ATSC6dv;ATSC7dv;ATSC8dv;ATSC0d;ATSC1d;ATSC2d;ATSC3d;ATSC4d;ATSC5d;ATSC6d;ATSC7d;ATSC8d;ATSC0s;ATSC1s;ATSC2s;ATSC3s;ATSC4s;ATSC5s;ATSC6s;ATSC7s;ATSC8s;ATSC0Z;ATSC1Z;ATSC2Z;ATSC3Z;ATSC4Z;ATSC5Z;ATSC6Z;ATSC7Z;ATSC8Z;ATSC0m;ATSC1m;ATSC2m;ATSC3m;ATSC4m;ATSC5m;ATSC6m;ATSC7m;ATSC8m;ATSC0v;ATSC1v;ATSC2v;ATSC3v;ATSC4v;ATSC5v;ATSC6v;ATSC7v;ATSC8v;ATSC0se;ATSC1se;ATSC2se;ATSC3se;ATSC4se;ATSC5se;ATSC6se;ATSC7se;ATSC8se;ATSC0pe;ATSC1pe;ATSC2pe;ATSC3pe;ATSC4pe;ATSC5pe;ATSC6pe;ATSC7pe;ATSC8pe;ATSC0are;ATSC1are;ATSC2are;ATSC3are;ATSC4are;ATSC5are;ATSC6are;ATSC7are;ATSC8are;ATSC0p;ATSC1p;ATSC2p;ATSC3p;ATSC4p;ATSC5p;ATSC6p;ATSC7p;ATSC8p;ATSC0i;ATSC1i;ATSC2i;ATSC3i;ATSC4i;ATSC5i;ATSC6i;ATSC7i;ATSC8i;AATSC0c;AATSC1c;AATSC2c;AATSC3c;AATSC0dv;AATSC1dv;AATSC2dv;AATSC3dv;AATSC0d;AATSC1d;AATSC2d;AATSC3d;AATSC0s;AATSC1s;AATSC2s;AATSC3s;AATSC0Z;AATSC1Z;AATSC2Z;AATSC3Z;AATSC0m;AATSC1m;AATSC2m;AATSC3m;AATSC0v;AATSC1v;AATSC2v;AATSC3v;AATSC0se;AATSC1se;AATSC2se;AATSC3se;AATSC0pe;AATSC1pe;AATSC2pe;AATSC3pe;AATSC0are;AATSC1are;AATSC2are;AATSC3are;AATSC0p;AATSC1p;AATSC2p;AATSC3p;AATSC0i;AATSC1i;AATSC2i;AATSC3i;MATS1c;MATS2c;MATS3c;MATS1dv;MATS2dv;MATS3dv;MATS1s;MATS2s;MATS3s;MATS1Z;MATS2Z;MATS3Z;MATS1m;MATS2m;MATS3m;MATS1v;MATS2v;MATS3v;MATS1se;MATS2se;MATS3se;MATS1pe;MATS2pe;MATS3pe;MATS1are;MATS2are;MATS3are;MATS1p;MATS2p;MATS3p;MATS1i;MATS2i;MATS3i;GATS1c;GATS2c;GATS3c;GATS1dv;GATS2dv;GATS3dv;GATS1s;GATS2s;GATS3s;GATS1Z;GATS2Z;GATS3Z;GATS1m;GATS2m;GATS3m;GATS1v;GATS2v;GATS3v;GATS1se;GATS2se;GATS3se;GATS1pe;GATS2pe;GATS3pe;GATS1are;GATS2are;GATS3are;GATS1p;GATS2p;GATS3p;GATS1i;GATS2i;GATS3i;BCUTc-1h;BCUTc-1l;BCUTdv-1h;BCUTdv-1l;BCUTd-1h;BCUTd-1l;BCUTs-1h;BCUTs-1l;BCUTZ-1h;BCUTZ-1l;BCUTm-1h;BCUTm-1l;BCUTv-1h;BCUTv-1l;BCUTse-1h;BCUTse-1l;BCUTpe-1h;BCUTpe-1l;BCUTare-1h;BCUTare-1l;BCUTp-1h;BCUTp-1l;BCUTi-1h;BCUTi-1l;BalabanJ;SpAbs_DzZ;SpMax_DzZ;SpDiam_DzZ;SpAD_DzZ;SpMAD_DzZ;LogEE_DzZ;VE1_DzZ;VE2_DzZ;VE3_DzZ;VR1_DzZ;VR2_DzZ;VR3_DzZ;SpAbs_Dzm;SpMax_Dzm;SpDiam_Dzm;SpAD_Dzm;SpMAD_Dzm;LogEE_Dzm;VE1_Dzm;VE2_Dzm;VE3_Dzm;VR1_Dzm;VR2_Dzm;VR3_Dzm;SpAbs_Dzv;SpMax_Dzv;SpDiam_Dzv;SpAD_Dzv;SpMAD_Dzv;LogEE_Dzv;VE1_Dzv;VE2_Dzv;VE3_Dzv;VR1_Dzv;VR2_Dzv;VR3_Dzv;SpAbs_Dzse;SpMax_Dzse;SpDiam_Dzse;SpAD_Dzse;SpMAD_Dzse;LogEE_Dzse;VE1_Dzse;VE2_Dzse;VE3_Dzse;VR1_Dzse;VR2_Dzse;VR3_Dzse;SpAbs_Dzpe;SpMax_Dzpe;SpDiam_Dzpe;SpAD_Dzpe;SpMAD_Dzpe;LogEE_Dzpe;VE1_Dzpe;VE2_Dzpe;VE3_Dzpe;VR1_Dzpe;VR2_Dzpe;VR3_Dzpe;SpAbs_Dzare;SpMax_Dzare;SpDiam_Dzare;SpAD_Dzare;SpMAD_Dzare;LogEE_Dzare;VE1_Dzare;VE2_Dzare;VE3_Dzare;VR1_Dzare;VR2_Dzare;VR3_Dzare;SpAbs_Dzp;SpMax_Dzp;SpDiam_Dzp;SpAD_Dzp;SpMAD_Dzp;LogEE_Dzp;VE1_Dzp;VE2_Dzp;VE3_Dzp;VR1_Dzp;VR2_Dzp;VR3_Dzp;SpAbs_Dzi;SpMax_Dzi;SpDiam_Dzi;SpAD_Dzi;SpMAD_Dzi;LogEE_Dzi;VE1_Dzi;VE2_Dzi;VE3_Dzi;VR1_Dzi;VR2_Dzi;VR3_Dzi;BertzCT;nBonds;nBondsO;nBondsS;nBondsKS;RNCG;RPCG;C1SP3;C2SP3;C3SP3;C4SP3;Xc-3d;Xc-4d;Xc-5d;Xc-6d;Xc-3dv;Xc-4dv;Xc-5dv;Xc-6dv;Xpc-4d;Xpc-5d;Xpc-6d;Xpc-4dv;Xpc-5dv;Xpc-6dv;Xp-0d;Xp-1d;Xp-2d;Xp-3d;Xp-4d;Xp-5d;Xp-6d;Xp-7d;AXp-0d;AXp-1d;Xp-0dv;Xp-1dv;Xp-2dv;Xp-3dv;Xp-4dv;Xp-5dv;Xp-6dv;Xp-7dv;AXp-0dv;AXp-1dv;SZ;Sm;Sv;Sse;Spe;Sare;Sp;Si;MZ;Mm;Mv;Mse;Mpe;Mare;Mp;Mi;SpAbs_D;SpMax_D;SpDiam_D;SpAD_D;SpMAD_D;LogEE_D;VE1_D;VE2_D;VE3_D;VR1_D;VR2_D;VR3_D;NsCH3;NssCH2;NsssCH;NssssC;SsCH3;SssCH2;SsssCH;SssssC;MAXsCH3;MINsCH3;ECIndex;ETA_alpha;ETA_shape_p;ETA_shape_y;ETA_shape_x;ETA_beta;AETA_beta;ETA_beta_s;AETA_beta_s;ETA_eta;AETA_eta;ETA_eta_L;AETA_eta_L;ETA_eta_R;AETA_eta_R;ETA_eta_RL;AETA_eta_RL;ETA_eta_B;AETA_eta_B;ETA_eta_BR;AETA_eta_BR;ETA_epsilon_1;ETA_epsilon_2;ETA_epsilon_3;ETA_epsilon_4;ETA_epsilon_5;ETA_dBeta;AETA_dBeta;ETA_psi_1;ETA_dPsi_B;fragCpx;IC0;IC1;IC2;IC3;IC4;IC5;TIC0;TIC1;TIC2;TIC3;TIC4;TIC5;SIC0;SIC1;SIC2;SIC3;SIC4;SIC5;BIC0;BIC1;BIC2;BIC3;BIC4;BIC5;CIC0;CIC1;CIC2;CIC3;CIC4;CIC5;MIC0;MIC1;MIC2;MIC3;MIC4;MIC5;ZMIC0;ZMIC1;ZMIC2;ZMIC3;ZMIC4;ZMIC5;Kier1;Lipinski;GhoseFilter;FilterItLogS;VMcGowan;LabuteASA;PEOE_VSA6;PEOE_VSA7;SMR_VSA4;SMR_VSA5;SlogP_VSA4;SlogP_VSA5;EState_VSA3;EState_VSA4;EState_VSA5;EState_VSA7;EState_VSA8;VSA_EState4;VSA_EState5;VSA_EState7;VSA_EState8;MDEC-11;MID;AMID;MID_C;AMID_C;MPC2;MPC3;MPC4;MPC5;MPC6;MPC7;MPC8;MPC9;MPC10;TMPC10;piPC1;piPC2;piPC3;piPC4;piPC5;piPC6;piPC7;piPC8;piPC9;piPC10;TpiPC10;apol;bpol;nRot;RotRatio;SLogP;SMR;GGI1;GGI2;GGI3;GGI4;GGI5;GGI6;GGI7;GGI8;GGI9;GGI10;JGI1;JGI2;JGI3;JGI4;JGI5;JGI6;JGI7;JGI8;JGI9;JGI10;JGT10;Diameter;Radius;TopoShapeIndex;PetitjeanIndex;Vabc;VAdjMat;MWC01;MWC02;MWC03;MWC04;MWC05;MWC06;MWC07;MWC08;MWC09;MWC10;TMWC10;SRW02;SRW04;SRW06;SRW08;SRW10;TSRW10;MW;AMW;WPath;WPol;Zagreb1;Zagreb2;mZagreb1;mZagreb2
123.0;CCC(C(C)C)C(C)C;3-ethyl-2,4-dimethylpentane;VLHAGZNBWKUMRW-UHFFFAOYSA-N;9.431147620289327;2.1753277471610746;4.350655494322149;9.431147620289327;1.0479052911432585;3.0292988000517904;2.7367347797632577;0.30408164219591755;0.9014050079017271;24.191427888071466;2.6879364320079406;3.080637835253089;29.0;9.0;20.0;9.0;36.0;38.0;38.0;26.0;8.0;0.0;0.0;0.0;0.0;56.0;66.0;122.0;132.0;138.0;90.0;72.0;0.0;0.0;47.583333333333336;56.222222222222214;85.1111111111111;114.99999999999999;140.0;138.0;72.0;0.0;0.0;344.0;408.0;544.0;622.0;590.0;330.0;72.0;0.0;0.0;1318.6983689999995;1396.254728;1797.8966979999996;1949.278138;1725.435272;623.814912;73.15660799999998;0.0;0.0;4433.327004362572;5682.86754140501;7945.1341867627025;9508.476049794506;9617.728622672808;6812.874851883966;2238.0295990269788;0.0;0.0;202.2339240000001;202.67676799999998;382.19427999999994;507.916648;628.8015680000001;623.821824;483.7294079999999;0.0;0.0;155.32250000000002;164.22;299.54499999999996;395.905;482.78;472.55999999999995;348.4799999999999;0.0;0.0;153.05;160.0;293.94000000000005;388.98;475.92;467.28000000000003;348.4799999999999;0.0;0.0;33.992358096980006;44.5820862;66.18204715758401;82.212256306678;88.202440024262;72.123868883658;32.012129149128;0.0;0.0;4839.50224529498;4076.805802978;8514.057329249184;11461.03381394948;14778.617725009064;15116.42367523766;13314.070945745929;0.0;0.0;1.2413793103448276;1.3571428571428572;0.7037037037037037;0.3611111111111111;1.9310344827586208;2.357142857142857;2.259259259259259;1.8333333333333333;1.6408045977011496;2.0079365079365075;1.5761316872427982;1.597222222222222;11.862068965517242;14.571428571428571;10.074074074074074;8.63888888888889;45.47235755172412;49.866240285714284;33.29438329629629;27.073307472222222;152.8733449780197;202.95955505017895;147.1321145696797;132.06216735825703;6.9735835862068996;7.238455999999999;7.077671851851851;7.054397888888889;5.35594827586207;5.865;5.547129629629629;5.498680555555556;5.277586206896552;5.714285714285714;5.443333333333334;5.4025;1.172150279206207;1.5922173642857143;1.2255934658811853;1.1418368931483056;166.8793877687924;145.6002072492143;157.66772831942933;159.18102519374278;0.04019546998026862;-0.008916684802946457;-0.0005763221946909151;-0.005106453121919457;-0.0014105744236659508;-0.04300790904251402;0.03892020859560249;0.0;0.0;27.17241379310344;11.212841854934597;-5.148632580261596;-18.290130796670628;-24.19024970273484;0.9131985731272291;21.91676575505351;0.0;0.0;11.310344827586206;4.872770511296075;-3.3365041617122486;-10.287752675386445;-6.34244946492271;5.243757431629015;4.195005945303211;0.0;0.0;4.126436781609196;-2.198705245078609;0.7722288281146783;-1.1242568370986912;3.1076099881093935;-6.2372175980975015;3.6171224732461322;0.0;0.0;155.17241379310346;-11.890606420927494;7.609988109393548;-42.152199762187905;-48.81093935790727;-155.70749108204518;173.36504161712253;0.0;0.0;751.4441937931032;-57.5819305588583;36.8524355576696;-204.12794383115315;-236.37382494411392;-754.035380668252;839.5445475481561;0.0;0.0;1397.342566174485;-107.07605871068867;68.5286775748406;-379.58462812939115;-439.5472210073768;-1402.1609888164662;1561.1689360018395;0.0;0.0;0.14720275862068946;-0.011279904875146941;0.0072191391200964235;-0.03998726278240049;-0.04630400951248472;-0.1477103543400719;0.16446101307966288;0.0;0.0;0.7603448275862053;-0.05826397146254694;0.03728894173602654;-0.2065457788347222;-0.23917360285374561;-0.7629667063020189;0.8494887039239044;0.0;0.0;0.5586206896551719;-0.04280618311534082;0.02739595719381531;-0.15174791914387778;-0.1757193816884664;-0.5605469678953612;0.6241141498216449;0.0;0.0;6.246771423200688;-0.4786798025441109;0.30635507362823583;-1.6969199000188817;-1.964980589443588;-6.268312014315175;6.979151521093176;0.0;0.0;33.932561514511;-2.600196284637049;1.664125622167441;-9.21769582903782;-10.673805748434347;-34.04957034731957;37.91086183000585;0.0;0.0;0.00138605068897478;-0.0003184530286766592;-1.0672633235016945e-05;-7.092296002665912e-05;0.9369797859690842;0.40045863767623563;-0.09534504778262215;-0.25402959439820316;0.3900118906064209;0.1740275182605741;-0.06178711410578238;-0.14288545382481174;0.14229092350376538;-0.07852518732423604;0.014300533853975525;-0.015614678293037377;5.35077288941736;-0.4246645150331248;0.14092570572951016;-0.5854472189192764;25.911868751486317;-2.0564975199592253;0.6824525103272149;-2.835110330988238;48.184226419809825;-3.8241449539531667;1.2690495847192704;-5.272008724019321;0.005075957193816878;-0.0004028537455409622;0.0001336877614832671;-0.0005553786497555623;0.026218787158145008;-0.002080856123662391;0.0006905359580745655;-0.002868691372704475;0.01926278240190248;-0.001528792254119315;0.0005073325406262095;-0.0021076099881094136;0.2154059111448513;-0.017095707233718248;0.005673242104226589;-0.02356833194470669;1.1700883280865861;-0.09286415302275175;0.03081714115124891;-0.12802355318108083;-0.22975568729900442;-0.0077000309728291185;-0.05116909546729398;0.4273930384336475;-0.10175784921977823;-0.27111534122955444;-0.5518636423928899;0.10050208053922073;-0.10973769730733508;-0.07936507936507954;0.026337448559670674;-0.10941358024691365;-0.07936507936507912;0.026337448559670906;-0.10941358024691349;-0.07936507936507949;0.026337448559670767;-0.10941358024691368;-0.07936507936506756;0.026337448559675552;-0.10941358024690986;-0.07936507936508275;0.026337448559669425;-0.10941358024691468;-0.07936507936508304;0.026337448559669293;-0.10941358024691472;-0.07936507936507886;0.02633744855967103;-0.10941358024691342;-0.07936507936508519;0.026337448559668436;-0.10941358024691544;1.7632599902607078;1.0425488279358537;1.1364080912681218;1.2512690355329952;1.9655010340289534;1.7317399887196847;2.1675951717734447;0.7085697582447814;1.1073584029712162;1.6111111111111112;1.1695473251028807;1.2530864197530864;1.6111111111111116;1.1695473251028814;1.2530864197530869;1.6111111111111116;1.169547325102881;1.2530864197530869;1.6111111111111116;1.1695473251028807;1.2530864197530869;1.6111111111111112;1.169547325102881;1.2530864197530864;1.6111111111111107;1.1695473251028803;1.253086419753086;1.6111111111111112;1.169547325102881;1.2530864197530867;1.611111111111111;1.1695473251028807;1.2530864197530864;0.22506536614981137;-0.23089738729104892;3.152323933674189;0.9871887527804404;3.152323933674189;0.9871887527804404;2.0405144022084167;1.162932548254432;6.230586276035373;5.775246643808083;12.241586276035365;11.78624664380807;20.810112552150922;20.354772919923608;2.9765862760353743;2.521246643808084;2.780586276035373;2.3252466438080885;2.7305862760353783;2.275246643808086;1.9005862760353753;1.445246643808086;11.490886276035377;11.035546643808082;3.677615681908372;41.48767931681485;20.743839658407417;28.207941273545174;41.48767931681484;4.60974214631276;20.74383966151971;2.950104430721418;0.32778938119126866;0.9764800543118769;27.632849016414742;3.0703165573794156;3.2136447311146075;41.48767931681485;20.743839658407417;28.207941273545174;41.48767931681484;4.60974214631276;20.74383966151971;2.950104430721418;0.32778938119126866;0.9764800543118769;27.632849016414742;3.0703165573794156;3.2136447311146075;41.48767931681485;20.743839658407417;28.207941273545174;41.48767931681484;4.60974214631276;20.74383966151971;2.950104430721418;0.32778938119126866;0.9764800543118769;27.632849016414742;3.0703165573794156;3.2136447311146075;41.48767931681485;20.743839658407417;28.207941273545174;41.48767931681484;4.60974214631276;20.74383966151971;2.950104430721418;0.32778938119126866;0.9764800543118769;27.632849016414742;3.0703165573794156;3.2136447311146075;41.48767931681485;20.743839658407417;28.207941273545174;41.48767931681484;4.60974214631276;20.74383966151971;2.950104430721418;0.32778938119126866;0.9764800543118769;27.632849016414742;3.0703165573794156;3.2136447311146075;41.48767931681485;20.743839658407417;28.207941273545174;41.48767931681484;4.60974214631276;20.74383966151971;2.950104430721418;0.32778938119126866;0.9764800543118769;27.632849016414742;3.0703165573794156;3.2136447311146075;41.48767931681485;20.743839658407417;28.207941273545174;41.48767931681484;4.60974214631276;20.74383966151971;2.950104430721418;0.32778938119126866;0.9764800543118769;27.632849016414742;3.0703165573794156;3.2136447311146075;41.48767931681485;20.743839658407417;28.207941273545174;41.48767931681484;4.60974214631276;20.74383966151971;2.950104430721418;0.32778938119126866;0.9764800543118769;27.632849016414742;3.0703165573794156;3.2136447311146075;54.43856189774725;28.0;8.0;28.0;28.0;0.13202432212728327;0.062436690499898966;5.0;1.0;3.0;0.0;0.802749430154621;0.0;0.2721655269759087;0.0;0.802749430154621;0.0;0.2721655269759087;0.0;1.536718517690554;2.329866987614167;1.5532777246094185;1.536718517690554;2.329866987614167;1.5532777246094185;7.439157588755425;4.09142281507558;3.560136772697355;2.184013921292596;1.7126094005015646;0.0;0.0;0.0;0.8265730654172694;0.5114278518844475;7.439157588755425;4.09142281507558;3.560136772697355;2.184013921292596;1.7126094005015646;0.0;0.0;0.0;0.8265730654172694;0.5114278518844475;12.33333333333333;10.678461410373828;14.418278037858745;27.87836853605244;26.254901960784316;26.599999999999998;16.985544910179645;33.15289645924176;0.425287356321839;0.3682228072542699;0.49718200130547396;0.9613230529673256;0.9053414469235971;0.9172413793103448;0.5857084451786084;1.1432033261807504;41.48767931681485;20.743839658407417;28.207941273545174;41.48767931681484;4.60974214631276;20.74383966151971;2.950104430721418;0.32778938119126866;0.9764800543118769;27.632849016414742;3.0703165573794156;3.2136447311146075;5.0;1.0;3.0;0.0;11.537037037037038;1.3287037037037037;2.6342592592592586;0.0;2.3136574074074074;2.2824074074074074;50.0;4.5;0.5555555555555556;0.3333333333333333;0.0;4.0;0.4444444444444444;4.0;0.4444444444444444;11.207223025141491;1.245247002793499;4.09142281507558;0.45460253500839776;11.207223025141491;1.245247002793499;4.09142281507558;0.45460253500839776;0.3227907472975149;0.03586563858861277;0.3227907472975149;0.03586563858861277;0.4241379310344827;0.7;0.4241379310344827;0.4241379310344827;0.7;-4.0;-0.4444444444444444;0.7142857142857143;0.00028571428571433355;8.0;0.8935711016541907;1.3130468615293813;2.2594207731864944;2.727827977513181;2.727827977513181;2.727827977513181;25.91356194797153;38.07835898435206;65.52320242240833;79.10701134788225;79.10701134788225;79.10701134788225;0.18393878085369605;0.27028653731793784;0.4650946093557456;0.5615147486680416;0.5615147486680416;0.5615147486680416;0.18587583320595183;0.2731329146314377;0.4699925031163366;0.5674280392731309;0.5674280392731309;0.5674280392731309;3.9644098934733814;3.5449341335981908;2.5985602219410775;2.130153017614391;2.130153017614391;2.130153017614391;6.664965218283638;11.703288570144554;15.07202317400985;15.544177635971147;15.544177635971147;15.544177635971147;35.68332320783173;27.611033786235424;24.59606233274345;24.237759859583957;24.237759859583957;24.237759859583957;9.0;1.0;0.0;-2.3268147003950466;137.67000000000004;59.65878794300239;41.03950762137913;17.75371813848418;17.75371813848418;41.03950762137913;17.75371813848418;41.03950762137913;0.0;17.75371813848418;6.4208216229260096;0.0;34.61868599845312;0.0;2.6342592592592586;1.3287037037037037;11.537037037037038;2.8717458874925876;16.333531873611015;1.8148368748456685;16.333531873611015;1.8148368748456685;10.0;10.0;8.0;0.0;0.0;0.0;0.0;0.0;0.0;45.0;2.1972245773362196;2.3978952727983707;2.3978952727983707;2.1972245773362196;0.0;0.0;0.0;0.0;0.0;0.0;3.828641396489095;28.365859999999998;20.06414;3.0;0.375;3.324600000000002;43.45700000000001;2.5;1.333333333333334;1.0;0.0;0.0;0.0;0.0;0.0;0.0;0.0;0.3125;0.13333333333333341;0.10000000000000002;0.0;0.0;0.0;0.0;0.0;0.0;0.0;0.5458333333333334;4.0;2.0;1.0;0.5;164.22032596245742;4.0;8.0;3.6109179126442243;4.343805421853684;5.14166355650266;5.8888779583328805;6.690842277418564;7.4413203897176174;8.244071270295786;8.99528899055931;9.798182590890704;77.15497036821542;2.833213344056216;4.04305126783455;5.4510384535657;6.947937068614969;8.479906606630221;36.755146740701655;128.15650064;4.419189677241379;90.0;10.0;36.0;38.0;5.583333333333334;2.222222222222222