boiling_point;SMILES;IUPAC_name;InChIKey;SpAbs_A;SpMax_A;SpDiam_A;SpAD_A;SpMAD_A;LogEE_A;VE1_A;VE2_A;VE3_A;VR1_A;VR2_A;VR3_A;nAtom;nHeavyAtom;nH;nC;ATS0dv;ATS1dv;ATS2dv;ATS3dv;ATS4dv;ATS5dv;ATS6dv;ATS7dv;ATS8dv;ATS0d;ATS1d;ATS2d;ATS3d;ATS4d;ATS5d;ATS6d;ATS7d;ATS8d;ATS0s;ATS1s;ATS2s;ATS3s;ATS4s;ATS5s;ATS6s;ATS7s;ATS8s;ATS0Z;ATS1Z;ATS2Z;ATS3Z;ATS4Z;ATS5Z;ATS6Z;ATS7Z;ATS8Z;ATS0m;ATS1m;ATS2m;ATS3m;ATS4m;ATS5m;ATS6m;ATS7m;ATS8m;ATS0v;ATS1v;ATS2v;ATS3v;ATS4v;ATS5v;ATS6v;ATS7v;ATS8v;ATS0se;ATS1se;ATS2se;ATS3se;ATS4se;ATS5se;ATS6se;ATS7se;ATS8se;ATS0pe;ATS1pe;ATS2pe;ATS3pe;ATS4pe;ATS5pe;ATS6pe;ATS7pe;ATS8pe;ATS0are;ATS1are;ATS2are;ATS3are;ATS4are;ATS5are;ATS6are;ATS7are;ATS8are;ATS0p;ATS1p;ATS2p;ATS3p;ATS4p;ATS5p;ATS6p;ATS7p;ATS8p;ATS0i;ATS1i;ATS2i;ATS3i;ATS4i;ATS5i;ATS6i;ATS7i;ATS8i;AATS0dv;AATS1dv;AATS2dv;AATS3dv;AATS0d;AATS1d;AATS2d;AATS3d;AATS0s;AATS1s;AATS2s;AATS3s;AATS0Z;AATS1Z;AATS2Z;AATS3Z;AATS0m;AATS1m;AATS2m;AATS3m;AATS0v;AATS1v;AATS2v;AATS3v;AATS0se;AATS1se;AATS2se;AATS3se;AATS0pe;AATS1pe;AATS2pe;AATS3pe;AATS0are;AATS1are;AATS2are;AATS3are;AATS0p;AATS1p;AATS2p;AATS3p;AATS0i;AATS1i;AATS2i;AATS3i;ATSC0c;ATSC1c;ATSC2c;ATSC3c;ATSC4c;ATSC5c;ATSC6c;ATSC7c;ATSC8c;ATSC0dv;ATSC1dv;ATSC2dv;ATSC3dv;ATSC4dv;ATSC5dv;ATSC6dv;ATSC7dv;ATSC8dv;ATSC0d;ATSC1d;ATSC2d;ATSC3d;ATSC4d;ATSC5d;ATSC6d;ATSC7d;ATSC8d;ATSC0s;ATSC1s;ATSC2s;ATSC3s;ATSC4s;ATSC5s;ATSC6s;ATSC7s;ATSC8s;ATSC0Z;ATSC1Z;ATSC2Z;ATSC3Z;ATSC4Z;ATSC5Z;ATSC6Z;ATSC7Z;ATSC8Z;ATSC0m;ATSC1m;ATSC2m;ATSC3m;ATSC4m;ATSC5m;ATSC6m;ATSC7m;ATSC8m;ATSC0v;ATSC1v;ATSC2v;ATSC3v;ATSC4v;ATSC5v;ATSC6v;ATSC7v;ATSC8v;ATSC0se;ATSC1se;ATSC2se;ATSC3se;ATSC4se;ATSC5se;ATSC6se;ATSC7se;ATSC8se;ATSC0pe;ATSC1pe;ATSC2pe;ATSC3pe;ATSC4pe;ATSC5pe;ATSC6pe;ATSC7pe;ATSC8pe;ATSC0are;ATSC1are;ATSC2are;ATSC3are;ATSC4are;ATSC5are;ATSC6are;ATSC7are;ATSC8are;ATSC0p;ATSC1p;ATSC2p;ATSC3p;ATSC4p;ATSC5p;ATSC6p;ATSC7p;ATSC8p;ATSC0i;ATSC1i;ATSC2i;ATSC3i;ATSC4i;ATSC5i;ATSC6i;ATSC7i;ATSC8i;AATSC0c;AATSC1c;AATSC2c;AATSC3c;AATSC0dv;AATSC1dv;AATSC2dv;AATSC3dv;AATSC0d;AATSC1d;AATSC2d;AATSC3d;AATSC0s;AATSC1s;AATSC2s;AATSC3s;AATSC0Z;AATSC1Z;AATSC2Z;AATSC3Z;AATSC0m;AATSC1m;AATSC2m;AATSC3m;AATSC0v;AATSC1v;AATSC2v;AATSC3v;AATSC0se;AATSC1se;AATSC2se;AATSC3se;AATSC0pe;AATSC1pe;AATSC2pe;AATSC3pe;AATSC0are;AATSC1are;AATSC2are;AATSC3are;AATSC0p;AATSC1p;AATSC2p;AATSC3p;AATSC0i;AATSC1i;AATSC2i;AATSC3i;MATS1c;MATS2c;MATS3c;MATS1dv;MATS2dv;MATS3dv;MATS1s;MATS2s;MATS3s;MATS1Z;MATS2Z;MATS3Z;MATS1m;MATS2m;MATS3m;MATS1v;MATS2v;MATS3v;MATS1se;MATS2se;MATS3se;MATS1pe;MATS2pe;MATS3pe;MATS1are;MATS2are;MATS3are;MATS1p;MATS2p;MATS3p;MATS1i;MATS2i;MATS3i;GATS1c;GATS2c;GATS3c;GATS1dv;GATS2dv;GATS3dv;GATS1s;GATS2s;GATS3s;GATS1Z;GATS2Z;GATS3Z;GATS1m;GATS2m;GATS3m;GATS1v;GATS2v;GATS3v;GATS1se;GATS2se;GATS3se;GATS1pe;GATS2pe;GATS3pe;GATS1are;GATS2are;GATS3are;GATS1p;GATS2p;GATS3p;GATS1i;GATS2i;GATS3i;BCUTc-1h;BCUTc-1l;BCUTdv-1h;BCUTdv-1l;BCUTd-1h;BCUTd-1l;BCUTs-1h;BCUTs-1l;BCUTZ-1h;BCUTZ-1l;BCUTm-1h;BCUTm-1l;BCUTv-1h;BCUTv-1l;BCUTse-1h;BCUTse-1l;BCUTpe-1h;BCUTpe-1l;BCUTare-1h;BCUTare-1l;BCUTp-1h;BCUTp-1l;BCUTi-1h;BCUTi-1l;BalabanJ;SpAbs_DzZ;SpMax_DzZ;SpDiam_DzZ;SpAD_DzZ;SpMAD_DzZ;LogEE_DzZ;VE1_DzZ;VE2_DzZ;VE3_DzZ;VR1_DzZ;VR2_DzZ;VR3_DzZ;SpAbs_Dzm;SpMax_Dzm;SpDiam_Dzm;SpAD_Dzm;SpMAD_Dzm;LogEE_Dzm;VE1_Dzm;VE2_Dzm;VE3_Dzm;VR1_Dzm;VR2_Dzm;VR3_Dzm;SpAbs_Dzv;SpMax_Dzv;SpDiam_Dzv;SpAD_Dzv;SpMAD_Dzv;LogEE_Dzv;VE1_Dzv;VE2_Dzv;VE3_Dzv;VR1_Dzv;VR2_Dzv;VR3_Dzv;SpAbs_Dzse;SpMax_Dzse;SpDiam_Dzse;SpAD_Dzse;SpMAD_Dzse;LogEE_Dzse;VE1_Dzse;VE2_Dzse;VE3_Dzse;VR1_Dzse;VR2_Dzse;VR3_Dzse;SpAbs_Dzpe;SpMax_Dzpe;SpDiam_Dzpe;SpAD_Dzpe;SpMAD_Dzpe;LogEE_Dzpe;VE1_Dzpe;VE2_Dzpe;VE3_Dzpe;VR1_Dzpe;VR2_Dzpe;VR3_Dzpe;SpAbs_Dzare;SpMax_Dzare;SpDiam_Dzare;SpAD_Dzare;SpMAD_Dzare;LogEE_Dzare;VE1_Dzare;VE2_Dzare;VE3_Dzare;VR1_Dzare;VR2_Dzare;VR3_Dzare;SpAbs_Dzp;SpMax_Dzp;SpDiam_Dzp;SpAD_Dzp;SpMAD_Dzp;LogEE_Dzp;VE1_Dzp;VE2_Dzp;VE3_Dzp;VR1_Dzp;VR2_Dzp;VR3_Dzp;SpAbs_Dzi;SpMax_Dzi;SpDiam_Dzi;SpAD_Dzi;SpMAD_Dzi;LogEE_Dzi;VE1_Dzi;VE2_Dzi;VE3_Dzi;VR1_Dzi;VR2_Dzi;VR3_Dzi;BertzCT;nBonds;nBondsO;nBondsS;nBondsKS;RNCG;RPCG;C1SP3;C2SP3;C3SP3;C4SP3;Xc-3d;Xc-4d;Xc-5d;Xc-6d;Xc-3dv;Xc-4dv;Xc-5dv;Xc-6dv;Xpc-4d;Xpc-5d;Xpc-6d;Xpc-4dv;Xpc-5dv;Xpc-6dv;Xp-0d;Xp-1d;Xp-2d;Xp-3d;Xp-4d;Xp-5d;Xp-6d;Xp-7d;AXp-0d;AXp-1d;Xp-0dv;Xp-1dv;Xp-2dv;Xp-3dv;Xp-4dv;Xp-5dv;Xp-6dv;Xp-7dv;AXp-0dv;AXp-1dv;SZ;Sm;Sv;Sse;Spe;Sare;Sp;Si;MZ;Mm;Mv;Mse;Mpe;Mare;Mp;Mi;SpAbs_D;SpMax_D;SpDiam_D;SpAD_D;SpMAD_D;LogEE_D;VE1_D;VE2_D;VE3_D;VR1_D;VR2_D;VR3_D;NsCH3;NssCH2;NsssCH;NssssC;SsCH3;SssCH2;SsssCH;SssssC;MAXsCH3;MINsCH3;ECIndex;ETA_alpha;ETA_shape_p;ETA_shape_y;ETA_shape_x;ETA_beta;AETA_beta;ETA_beta_s;AETA_beta_s;ETA_eta;AETA_eta;ETA_eta_L;AETA_eta_L;ETA_eta_R;AETA_eta_R;ETA_eta_RL;AETA_eta_RL;ETA_eta_B;AETA_eta_B;ETA_eta_BR;AETA_eta_BR;ETA_epsilon_1;ETA_epsilon_2;ETA_epsilon_3;ETA_epsilon_4;ETA_epsilon_5;ETA_dBeta;AETA_dBeta;ETA_psi_1;ETA_dPsi_B;fragCpx;IC0;IC1;IC2;IC3;IC4;IC5;TIC0;TIC1;TIC2;TIC3;TIC4;TIC5;SIC0;SIC1;SIC2;SIC3;SIC4;SIC5;BIC0;BIC1;BIC2;BIC3;BIC4;BIC5;CIC0;CIC1;CIC2;CIC3;CIC4;CIC5;MIC0;MIC1;MIC2;MIC3;MIC4;MIC5;ZMIC0;ZMIC1;ZMIC2;ZMIC3;ZMIC4;ZMIC5;Kier1;Lipinski;GhoseFilter;FilterItLogS;VMcGowan;LabuteASA;PEOE_VSA6;PEOE_VSA7;SMR_VSA4;SMR_VSA5;SlogP_VSA4;SlogP_VSA5;EState_VSA3;EState_VSA4;EState_VSA5;EState_VSA7;EState_VSA8;VSA_EState4;VSA_EState5;VSA_EState7;VSA_EState8;MDEC-11;MID;AMID;MID_C;AMID_C;MPC2;MPC3;MPC4;MPC5;MPC6;MPC7;MPC8;MPC9;MPC10;TMPC10;piPC1;piPC2;piPC3;piPC4;piPC5;piPC6;piPC7;piPC8;piPC9;piPC10;TpiPC10;apol;bpol;nRot;RotRatio;SLogP;SMR;GGI1;GGI2;GGI3;GGI4;GGI5;GGI6;GGI7;GGI8;GGI9;GGI10;JGI1;JGI2;JGI3;JGI4;JGI5;JGI6;JGI7;JGI8;JGI9;JGI10;JGT10;Diameter;Radius;TopoShapeIndex;PetitjeanIndex;Vabc;VAdjMat;MWC01;MWC02;MWC03;MWC04;MWC05;MWC06;MWC07;MWC08;MWC09;MWC10;TMWC10;SRW02;SRW04;SRW06;SRW08;SRW10;TSRW10;MW;AMW;WPath;WPol;Zagreb1;Zagreb2;mZagreb1;mZagreb2
157.0;CC(C)C(C(C)C)C(C)C;2,4-dimethyl-3-propan-2-ylpentane;YVYHOOYMDHZALB-UHFFFAOYSA-N;10.128990204491966;2.236067977499791;4.472135954999581;10.128990204491966;1.0128990204491966;3.1431207627346405;2.867912543907087;0.2867912543907087;1.053584428516184;28.321276589551623;2.8321276589551623;3.3436133451242434;32.0;10.0;22.0;10.0;42.0;45.0;48.0;36.0;12.0;0.0;0.0;0.0;0.0;64.0;75.0;144.0;153.0;180.0;108.0;108.0;0.0;0.0;53.111111111111114;62.66666666666666;95.33333333333331;133.0;168.0;180.0;108.0;0.0;0.0;382.0;456.0;630.0;741.0;768.0;468.0;108.0;0.0;0.0;1464.9946180000002;1564.733025;2112.671243999999;2333.6470199999994;2361.080748;908.2886399999999;109.73491199999997;0.0;0.0;4919.011394973762;6335.857675895377;9083.808711864258;11242.319039826387;12081.580139461503;9380.051178190832;3357.044398540468;0.0;0.0;223.21136800000002;224.45254799999998;424.947504;573.220272;754.6188;754.3342079999999;725.594112;0.0;0.0;171.505;181.9425;333.45;448.95;579.6299999999999;578.16;522.7199999999999;0.0;0.0;168.98000000000002;177.25;327.12;440.6400000000001;571.3199999999999;570.24;522.7199999999999;0.0;0.0;37.670483906678;49.59807482000001;74.87616158728198;96.253797881829;108.258346312752;96.181254894564;48.01819372369201;0.0;0.0;5336.131905433478;4509.8452544938;9443.726440903483;12754.685255808428;17747.461860463154;17681.858908201764;19971.10641861889;0.0;0.0;1.3125;1.4516129032258065;0.8;0.4444444444444444;2.0;2.4193548387096775;2.4;1.8888888888888888;1.6597222222222223;2.0215053763440856;1.5888888888888886;1.6419753086419753;11.9375;14.709677419354838;10.5;9.148148148148149;45.781081812500005;50.47525887096774;35.211187399999986;28.81045703703703;153.71910609293008;204.3825056740444;151.3968118644043;138.79406222007884;6.975355250000001;7.240404774193547;7.082458399999999;7.076793481481482;5.35953125;5.8691129032258065;5.5575;5.542592592592593;5.280625000000001;5.717741935483871;5.452;5.440000000000001;1.1772026220836875;1.599937897419355;1.2479360264546997;1.1883184923682593;166.7541220447962;145.47887917721934;157.39544068172472;157.465250071709;0.04382601503550239;-0.010290285522614009;0.003365134776259106;-0.01199719513469853;0.018010577099204225;-0.07972526507721198;0.05872402634130998;0.0;0.0;31.875;14.30859375;-3.890625;-19.37109375;-34.828125;-6.328125;34.171875;0.0;0.0;14.0;5.9375;-2.25;-12.9375;-11.25;6.75;6.75;0.0;0.0;4.763888888888888;-2.7608506944444424;1.6093750000000004;-2.7460937499999987;6.671875;-10.828124999999996;5.671874999999993;0.0;0.0;171.875;-11.81640625;24.609375;-64.74609375;1.171875;-298.828125;263.671875;0.0;0.0;832.3288118749999;-57.222605816406116;119.17435260937512;-313.54204674609355;5.674969171875013;-1447.1171388281248;1276.868063671874;0.0;0.0;1547.7509673946556;-106.40787900838225;221.60979760423513;-583.0448246492361;10.552847504963935;-2690.976113765708;2374.3906886167997;0.0;0.0;0.1630474999999998;-0.011209515625000697;0.023345437499999414;-0.061420734375000646;0.0011116874999998576;-0.28348031249999983;0.250129687500002;0.0;0.0;0.8421874999999983;-0.057900390625000686;0.12058593749999907;-0.3172558593750002;0.0057421874999997805;-1.4642578124999972;1.2919921875;0.0;0.0;0.6187499999999992;-0.0425390625000003;0.08859374999999961;-0.23308593750000012;0.00421874999999991;-1.0757812499999988;0.94921875;0.0;0.0;6.919166958336874;-0.475692728385663;0.9906989053982316;-2.6064816439644054;0.04717613835229634;-12.029915279835702;10.614631129266806;0.0;0.0;37.58502473308684;-2.583970450399775;5.3814921776919356;-14.15844965797538;0.25626153227103643;-65.34669072911689;57.65884476098566;0.0;0.0;0.0013695629698594496;-0.0003319446942778713;5.6085579604318434e-05;-0.00014811352018146334;0.99609375;0.4615675403225806;-0.06484375;-0.23914930555555555;0.4375;0.19153225806451613;-0.0375;-0.1597222222222222;0.14887152777777776;-0.08905969982078847;0.026822916666666675;-0.03390239197530862;5.37109375;-0.3811743951612903;0.41015625;-0.7993344907407407;26.010275371093748;-1.845890510206649;1.986239210156252;-3.870889466001155;48.36721773108299;-3.432512226076847;3.693496626737252;-7.198084254928841;0.005095234374999993;-0.00036159727822582895;0.0003890906249999902;-0.0007582806712963043;0.026318359374999947;-0.0018677545362903447;0.0020097656249999847;-0.003916739004629632;0.019335937499999976;-0.0013722278225806548;0.0014765624999999935;-0.002877604166666668;0.2162239674480273;-0.015344926722118162;0.01651164842330386;-0.03217878572795562;1.1745320229089637;-0.08335388549676694;0.08969153629486559;-0.1747956747898195;-0.24237271420381412;0.04095144278767567;-0.10814655728948584;0.4633776091081594;-0.06509803921568628;-0.2400871459694989;-0.5982319194959086;0.1801749271137027;-0.2277291869128603;-0.07096774193548387;0.07636363636363637;-0.14882154882154883;-0.07096774193548372;0.07636363636363645;-0.14882154882154874;-0.07096774193548366;0.07636363636363648;-0.14882154882154866;-0.07096774193548838;0.07636363636363454;-0.14882154882155058;-0.07096774193548486;0.07636363636363594;-0.14882154882154922;-0.07096774193548445;0.07636363636363612;-0.14882154882154908;-0.07096774193548432;0.07636363636363618;-0.14882154882154902;-0.07096774193548537;0.07636363636363575;-0.14882154882154938;1.7743477536402716;0.9809025087791966;1.2350110194217632;1.2235294117647058;1.9937254901960781;1.7289760348583876;2.2157434402332363;0.6145772594752186;1.2853903466148364;1.6;1.1272727272727274;1.3360269360269361;1.6000000000000003;1.1272727272727274;1.3360269360269363;1.6000000000000005;1.1272727272727276;1.3360269360269363;1.6;1.1272727272727274;1.3360269360269363;1.6;1.1272727272727274;1.336026936026936;1.6000000000000003;1.1272727272727272;1.3360269360269363;1.6;1.1272727272727274;1.3360269360269361;1.5999999999999999;1.1272727272727272;1.336026936026936;0.23226315283480098;-0.23778194903127808;3.180283358563862;0.9871887527804406;3.180283358563862;0.9871887527804406;2.0429977652192646;1.14643124519352;6.238086182683642;5.768630405427081;12.249086182683644;11.779630405427097;20.817612458799196;20.348156681542648;2.984086182683644;2.514630405427091;2.7880861826836436;2.3186304054270916;2.7380861826836442;2.2686304054270914;1.9080861826836442;1.4386304054270909;11.498386182683655;11.028930405427102;3.983500212666629;48.4380949901482;24.219047495074093;31.68314911021185;48.43809499014819;4.843809499014819;24.219047495177332;3.112106514599266;0.3112106514599266;1.1352998327867323;32.84465081549115;3.284465081549115;3.491788895004354;48.4380949901482;24.219047495074093;31.68314911021185;48.43809499014819;4.843809499014819;24.219047495177332;3.112106514599266;0.3112106514599266;1.1352998327867323;32.84465081549115;3.284465081549115;3.491788895004354;48.4380949901482;24.219047495074093;31.68314911021185;48.43809499014819;4.843809499014819;24.219047495177332;3.112106514599266;0.3112106514599266;1.1352998327867323;32.84465081549115;3.284465081549115;3.491788895004354;48.4380949901482;24.219047495074093;31.68314911021185;48.43809499014819;4.843809499014819;24.219047495177332;3.112106514599266;0.3112106514599266;1.1352998327867323;32.84465081549115;3.284465081549115;3.491788895004354;48.4380949901482;24.219047495074093;31.68314911021185;48.43809499014819;4.843809499014819;24.219047495177332;3.112106514599266;0.3112106514599266;1.1352998327867323;32.84465081549115;3.284465081549115;3.491788895004354;48.4380949901482;24.219047495074093;31.68314911021185;48.43809499014819;4.843809499014819;24.219047495177332;3.112106514599266;0.3112106514599266;1.1352998327867323;32.84465081549115;3.284465081549115;3.491788895004354;48.4380949901482;24.219047495074093;31.68314911021185;48.43809499014819;4.843809499014819;24.219047495177332;3.112106514599266;0.3112106514599266;1.1352998327867323;32.84465081549115;3.284465081549115;3.491788895004354;48.4380949901482;24.219047495074093;31.68314911021185;48.43809499014819;4.843809499014819;24.219047495177332;3.112106514599266;0.3112106514599266;1.1352998327867323;32.84465081549115;3.284465081549115;3.491788895004354;61.01955000865387;31.0;9.0;31.0;31.0;0.11554786069061321;0.05743454853321614;6.0;0.0;4.0;0.0;1.111111111111111;0.0;0.3333333333333333;0.0;1.111111111111111;0.0;0.3333333333333333;0.0;1.8213672050459186;3.6427344100918364;2.7995724914118485;1.8213672050459186;3.6427344100918364;2.7995724914118485;8.309401076758503;4.464101615137754;4.309401076758503;2.3094010767585034;2.3094010767585034;0.0;0.0;0.0;0.8309401076758502;0.4960112905708616;8.309401076758503;4.464101615137754;4.309401076758503;2.3094010767585034;2.3094010767585034;0.0;0.0;0.0;0.8309401076758502;0.4960112905708616;13.666666666666668;11.846307551411208;15.96010584164462;30.766205389657685;28.98039215686275;29.360000000000003;18.784099401197608;36.568186105165935;0.42708333333333337;0.37019711098160024;0.49875330755139435;0.9614439184268027;0.9056372549019609;0.9175000000000001;0.5870031062874252;1.1427558157864355;48.4380949901482;24.219047495074093;31.68314911021185;48.43809499014819;4.843809499014819;24.219047495177332;3.112106514599266;0.3112106514599266;1.1352998327867323;32.84465081549115;3.284465081549115;3.491788895004354;6.0;0.0;4.0;0.0;13.944444444444445;0.0;3.3888888888888884;0.0;2.324074074074074;2.324074074074074;57.0;5.0;0.6;0.4;0.0;4.5;0.45;4.5;0.45;13.505553499465137;1.3505553499465137;4.464101615137754;0.44641016151377544;13.505553499465137;1.3505553499465137;4.464101615137754;0.44641016151377544;0.45011194723534054;0.045011194723534056;0.45011194723534054;0.045011194723534056;0.425;0.7;0.425;0.425;0.7;-4.5;-0.45;0.7142857142857143;0.00028571428571433355;9.0;0.8960382325345574;1.1994602933016414;1.771146483360874;1.8725562489182659;1.8725562489182659;1.8725562489182659;28.673223441105836;38.382729385652524;56.67668746754797;59.92179996538451;59.92179996538451;59.92179996538451;0.17920764650691148;0.23989205866032828;0.35422929667217484;0.3745112497836532;0.3745112497836532;0.3745112497836532;0.1808644987797396;0.2421099645944339;0.3575042998694908;0.3779737684177552;0.3779737684177552;0.3779737684177552;4.103961767465442;3.8005397066983586;3.228853516639126;3.127443751081734;3.127443751081734;3.127443751081734;6.673151904630568;10.317554276504014;12.009625606511701;12.11184665019355;12.11184665019355;12.11184665019355;39.639944988972836;33.47759988824308;32.90638826056183;32.52311755723401;32.52311755723401;32.52311755723401;10.0;1.0;0.0;-2.3719026381119948;151.76000000000002;66.023730057399;41.54242319814374;23.671624184645573;23.671624184645573;41.54242319814374;23.671624184645573;41.54242319814374;0.0;23.671624184645573;0.0;0.0;41.54242319814374;0.0;3.3888888888888884;0.0;13.944444444444445;4.307618831238881;18.166380290214285;1.8166380290214286;18.166380290214285;1.8166380290214286;12.0;12.0;12.0;0.0;0.0;0.0;0.0;0.0;0.0;55.0;2.302585092994046;2.5649493574615367;2.5649493574615367;2.5649493574615367;0.0;0.0;0.0;0.0;0.0;0.0;4.02535169073515;31.369446;22.070553999999998;3.0;0.3333333333333333;3.5706000000000024;48.004000000000026;3.0;1.333333333333334;1.5;0.0;0.0;0.0;0.0;0.0;0.0;0.0;0.33333333333333337;0.11111111111111117;0.125;0.0;0.0;0.0;0.0;0.0;0.0;0.0;0.5694444444444445;4.0;2.0;1.0;0.5;181.5163111863147;4.169925001442312;9.0;3.7612001156935624;4.51085950651685;5.351858133476067;6.111467339502679;6.957497370876951;7.719129840906732;8.566173813637858;9.328212292571072;10.17545936253226;81.48185777571403;2.9444389791664403;4.204692619390966;5.645446897643238;7.181591944611865;8.760766624241956;38.73693706505446;142.172150704;4.4428797095;117.0;12.0;42.0;45.0;6.444444444444445;2.333333333333333