boiling_point;SMILES;IUPAC_name;InChIKey;SpAbs_A;SpMax_A;SpDiam_A;SpAD_A;SpMAD_A;LogEE_A;VE1_A;VE2_A;VE3_A;VR1_A;VR2_A;VR3_A;nAtom;nHeavyAtom;nH;nC;ATS0dv;ATS1dv;ATS2dv;ATS3dv;ATS4dv;ATS5dv;ATS6dv;ATS7dv;ATS8dv;ATS0d;ATS1d;ATS2d;ATS3d;ATS4d;ATS5d;ATS6d;ATS7d;ATS8d;ATS0s;ATS1s;ATS2s;ATS3s;ATS4s;ATS5s;ATS6s;ATS7s;ATS8s;ATS0Z;ATS1Z;ATS2Z;ATS3Z;ATS4Z;ATS5Z;ATS6Z;ATS7Z;ATS8Z;ATS0m;ATS1m;ATS2m;ATS3m;ATS4m;ATS5m;ATS6m;ATS7m;ATS8m;ATS0v;ATS1v;ATS2v;ATS3v;ATS4v;ATS5v;ATS6v;ATS7v;ATS8v;ATS0se;ATS1se;ATS2se;ATS3se;ATS4se;ATS5se;ATS6se;ATS7se;ATS8se;ATS0pe;ATS1pe;ATS2pe;ATS3pe;ATS4pe;ATS5pe;ATS6pe;ATS7pe;ATS8pe;ATS0are;ATS1are;ATS2are;ATS3are;ATS4are;ATS5are;ATS6are;ATS7are;ATS8are;ATS0p;ATS1p;ATS2p;ATS3p;ATS4p;ATS5p;ATS6p;ATS7p;ATS8p;ATS0i;ATS1i;ATS2i;ATS3i;ATS4i;ATS5i;ATS6i;ATS7i;ATS8i;AATS0dv;AATS1dv;AATS2dv;AATS3dv;AATS0d;AATS1d;AATS2d;AATS3d;AATS0s;AATS1s;AATS2s;AATS3s;AATS0Z;AATS1Z;AATS2Z;AATS3Z;AATS0m;AATS1m;AATS2m;AATS3m;AATS0v;AATS1v;AATS2v;AATS3v;AATS0se;AATS1se;AATS2se;AATS3se;AATS0pe;AATS1pe;AATS2pe;AATS3pe;AATS0are;AATS1are;AATS2are;AATS3are;AATS0p;AATS1p;AATS2p;AATS3p;AATS0i;AATS1i;AATS2i;AATS3i;ATSC0c;ATSC1c;ATSC2c;ATSC3c;ATSC4c;ATSC5c;ATSC6c;ATSC7c;ATSC8c;ATSC0dv;ATSC1dv;ATSC2dv;ATSC3dv;ATSC4dv;ATSC5dv;ATSC6dv;ATSC7dv;ATSC8dv;ATSC0d;ATSC1d;ATSC2d;ATSC3d;ATSC4d;ATSC5d;ATSC6d;ATSC7d;ATSC8d;ATSC0s;ATSC1s;ATSC2s;ATSC3s;ATSC4s;ATSC5s;ATSC6s;ATSC7s;ATSC8s;ATSC0Z;ATSC1Z;ATSC2Z;ATSC3Z;ATSC4Z;ATSC5Z;ATSC6Z;ATSC7Z;ATSC8Z;ATSC0m;ATSC1m;ATSC2m;ATSC3m;ATSC4m;ATSC5m;ATSC6m;ATSC7m;ATSC8m;ATSC0v;ATSC1v;ATSC2v;ATSC3v;ATSC4v;ATSC5v;ATSC6v;ATSC7v;ATSC8v;ATSC0se;ATSC1se;ATSC2se;ATSC3se;ATSC4se;ATSC5se;ATSC6se;ATSC7se;ATSC8se;ATSC0pe;ATSC1pe;ATSC2pe;ATSC3pe;ATSC4pe;ATSC5pe;ATSC6pe;ATSC7pe;ATSC8pe;ATSC0are;ATSC1are;ATSC2are;ATSC3are;ATSC4are;ATSC5are;ATSC6are;ATSC7are;ATSC8are;ATSC0p;ATSC1p;ATSC2p;ATSC3p;ATSC4p;ATSC5p;ATSC6p;ATSC7p;ATSC8p;ATSC0i;ATSC1i;ATSC2i;ATSC3i;ATSC4i;ATSC5i;ATSC6i;ATSC7i;ATSC8i;AATSC0c;AATSC1c;AATSC2c;AATSC3c;AATSC0dv;AATSC1dv;AATSC2dv;AATSC3dv;AATSC0d;AATSC1d;AATSC2d;AATSC3d;AATSC0s;AATSC1s;AATSC2s;AATSC3s;AATSC0Z;AATSC1Z;AATSC2Z;AATSC3Z;AATSC0m;AATSC1m;AATSC2m;AATSC3m;AATSC0v;AATSC1v;AATSC2v;AATSC3v;AATSC0se;AATSC1se;AATSC2se;AATSC3se;AATSC0pe;AATSC1pe;AATSC2pe;AATSC3pe;AATSC0are;AATSC1are;AATSC2are;AATSC3are;AATSC0p;AATSC1p;AATSC2p;AATSC3p;AATSC0i;AATSC1i;AATSC2i;AATSC3i;MATS1c;MATS2c;MATS3c;MATS1dv;MATS2dv;MATS3dv;MATS1s;MATS2s;MATS3s;MATS1Z;MATS2Z;MATS3Z;MATS1m;MATS2m;MATS3m;MATS1v;MATS2v;MATS3v;MATS1se;MATS2se;MATS3se;MATS1pe;MATS2pe;MATS3pe;MATS1are;MATS2are;MATS3are;MATS1p;MATS2p;MATS3p;MATS1i;MATS2i;MATS3i;GATS1c;GATS2c;GATS3c;GATS1dv;GATS2dv;GATS3dv;GATS1s;GATS2s;GATS3s;GATS1Z;GATS2Z;GATS3Z;GATS1m;GATS2m;GATS3m;GATS1v;GATS2v;GATS3v;GATS1se;GATS2se;GATS3se;GATS1pe;GATS2pe;GATS3pe;GATS1are;GATS2are;GATS3are;GATS1p;GATS2p;GATS3p;GATS1i;GATS2i;GATS3i;BCUTc-1h;BCUTc-1l;BCUTdv-1h;BCUTdv-1l;BCUTd-1h;BCUTd-1l;BCUTs-1h;BCUTs-1l;BCUTZ-1h;BCUTZ-1l;BCUTm-1h;BCUTm-1l;BCUTv-1h;BCUTv-1l;BCUTse-1h;BCUTse-1l;BCUTpe-1h;BCUTpe-1l;BCUTare-1h;BCUTare-1l;BCUTp-1h;BCUTp-1l;BCUTi-1h;BCUTi-1l;BalabanJ;SpAbs_DzZ;SpMax_DzZ;SpDiam_DzZ;SpAD_DzZ;SpMAD_DzZ;LogEE_DzZ;VE1_DzZ;VE2_DzZ;VE3_DzZ;VR1_DzZ;VR2_DzZ;VR3_DzZ;SpAbs_Dzm;SpMax_Dzm;SpDiam_Dzm;SpAD_Dzm;SpMAD_Dzm;LogEE_Dzm;VE1_Dzm;VE2_Dzm;VE3_Dzm;VR1_Dzm;VR2_Dzm;VR3_Dzm;SpAbs_Dzv;SpMax_Dzv;SpDiam_Dzv;SpAD_Dzv;SpMAD_Dzv;LogEE_Dzv;VE1_Dzv;VE2_Dzv;VE3_Dzv;VR1_Dzv;VR2_Dzv;VR3_Dzv;SpAbs_Dzse;SpMax_Dzse;SpDiam_Dzse;SpAD_Dzse;SpMAD_Dzse;LogEE_Dzse;VE1_Dzse;VE2_Dzse;VE3_Dzse;VR1_Dzse;VR2_Dzse;VR3_Dzse;SpAbs_Dzpe;SpMax_Dzpe;SpDiam_Dzpe;SpAD_Dzpe;SpMAD_Dzpe;LogEE_Dzpe;VE1_Dzpe;VE2_Dzpe;VE3_Dzpe;VR1_Dzpe;VR2_Dzpe;VR3_Dzpe;SpAbs_Dzare;SpMax_Dzare;SpDiam_Dzare;SpAD_Dzare;SpMAD_Dzare;LogEE_Dzare;VE1_Dzare;VE2_Dzare;VE3_Dzare;VR1_Dzare;VR2_Dzare;VR3_Dzare;SpAbs_Dzp;SpMax_Dzp;SpDiam_Dzp;SpAD_Dzp;SpMAD_Dzp;LogEE_Dzp;VE1_Dzp;VE2_Dzp;VE3_Dzp;VR1_Dzp;VR2_Dzp;VR3_Dzp;SpAbs_Dzi;SpMax_Dzi;SpDiam_Dzi;SpAD_Dzi;SpMAD_Dzi;LogEE_Dzi;VE1_Dzi;VE2_Dzi;VE3_Dzi;VR1_Dzi;VR2_Dzi;VR3_Dzi;BertzCT;nBonds;nBondsO;nBondsS;nBondsKS;RNCG;RPCG;C1SP3;C2SP3;C3SP3;C4SP3;Xc-3d;Xc-4d;Xc-5d;Xc-6d;Xc-3dv;Xc-4dv;Xc-5dv;Xc-6dv;Xpc-4d;Xpc-5d;Xpc-6d;Xpc-4dv;Xpc-5dv;Xpc-6dv;Xp-0d;Xp-1d;Xp-2d;Xp-3d;Xp-4d;Xp-5d;Xp-6d;Xp-7d;AXp-0d;AXp-1d;Xp-0dv;Xp-1dv;Xp-2dv;Xp-3dv;Xp-4dv;Xp-5dv;Xp-6dv;Xp-7dv;AXp-0dv;AXp-1dv;SZ;Sm;Sv;Sse;Spe;Sare;Sp;Si;MZ;Mm;Mv;Mse;Mpe;Mare;Mp;Mi;SpAbs_D;SpMax_D;SpDiam_D;SpAD_D;SpMAD_D;LogEE_D;VE1_D;VE2_D;VE3_D;VR1_D;VR2_D;VR3_D;NsCH3;NssCH2;NsssCH;NssssC;SsCH3;SssCH2;SsssCH;SssssC;MAXsCH3;MINsCH3;ECIndex;ETA_alpha;ETA_shape_p;ETA_shape_y;ETA_shape_x;ETA_beta;AETA_beta;ETA_beta_s;AETA_beta_s;ETA_eta;AETA_eta;ETA_eta_L;AETA_eta_L;ETA_eta_R;AETA_eta_R;ETA_eta_RL;AETA_eta_RL;ETA_eta_B;AETA_eta_B;ETA_eta_BR;AETA_eta_BR;ETA_epsilon_1;ETA_epsilon_2;ETA_epsilon_3;ETA_epsilon_4;ETA_epsilon_5;ETA_dBeta;AETA_dBeta;ETA_psi_1;ETA_dPsi_B;fragCpx;IC0;IC1;IC2;IC3;IC4;IC5;TIC0;TIC1;TIC2;TIC3;TIC4;TIC5;SIC0;SIC1;SIC2;SIC3;SIC4;SIC5;BIC0;BIC1;BIC2;BIC3;BIC4;BIC5;CIC0;CIC1;CIC2;CIC3;CIC4;CIC5;MIC0;MIC1;MIC2;MIC3;MIC4;MIC5;ZMIC0;ZMIC1;ZMIC2;ZMIC3;ZMIC4;ZMIC5;Kier1;Lipinski;GhoseFilter;FilterItLogS;VMcGowan;LabuteASA;PEOE_VSA6;PEOE_VSA7;SMR_VSA4;SMR_VSA5;SlogP_VSA4;SlogP_VSA5;EState_VSA3;EState_VSA4;EState_VSA5;EState_VSA7;EState_VSA8;VSA_EState4;VSA_EState5;VSA_EState7;VSA_EState8;MDEC-11;MID;AMID;MID_C;AMID_C;MPC2;MPC3;MPC4;MPC5;MPC6;MPC7;MPC8;MPC9;MPC10;TMPC10;piPC1;piPC2;piPC3;piPC4;piPC5;piPC6;piPC7;piPC8;piPC9;piPC10;TpiPC10;apol;bpol;nRot;RotRatio;SLogP;SMR;GGI1;GGI2;GGI3;GGI4;GGI5;GGI6;GGI7;GGI8;GGI9;GGI10;JGI1;JGI2;JGI3;JGI4;JGI5;JGI6;JGI7;JGI8;JGI9;JGI10;JGT10;Diameter;Radius;TopoShapeIndex;PetitjeanIndex;Vabc;VAdjMat;MWC01;MWC02;MWC03;MWC04;MWC05;MWC06;MWC07;MWC08;MWC09;MWC10;TMWC10;SRW02;SRW04;SRW06;SRW08;SRW10;TSRW10;MW;AMW;WPath;WPol;Zagreb1;Zagreb2;mZagreb1;mZagreb2
369.0;CCCCCCCCCCCCCCCCCCCCCC;docosane;HOWGUJZVBDQJKV-UHFFFAOYSA-N;27.307287087173826;1.9813718920726613;3.9627437841453226;27.307287087173826;1.2412403221442647;3.9053662233891817;4.311050200937186;0.19595682731532663;2.2496389009088773;134.28920166490528;6.104054621132058;5.688453056080835;68.0;22.0;46.0;22.0;82.0;80.0;76.0;72.0;68.0;64.0;60.0;56.0;52.0;128.0;166.0;270.0;320.0;304.0;288.0;272.0;256.0;240.0;99.0;120.75;203.5;257.25;245.0;232.75;220.5;208.25;196.0;838.0;1032.0;1262.0;1264.0;1200.0;1136.0;1072.0;1008.0;944.0;3220.5496060000005;3586.472588999999;3952.9096519999994;3823.2131469999995;3626.4564179999993;3429.699688999999;3232.9429599999994;3036.186230999999;2839.4295019999995;10747.224082308046;14171.73928977978;19145.864398055382;20190.593185541653;19183.79484058653;18176.996495631403;17170.19815067628;16163.399805721154;15156.601460766029;474.9406959999999;485.761908;937.6067360000001;1318.1404600000003;1255.25556;1192.37066;1129.48576;1066.60086;1003.71596;365.695;394.6125;738.3499999999999;1009.4875;961.185;912.8824999999999;864.5799999999999;816.2774999999999;767.975;360.14;384.25;723.8400000000001;995.6700000000001;948.0600000000001;900.45;852.8400000000001;805.23;757.62;81.80799362305399;109.78993825999999;163.102746186074;183.425669046712;174.404140187316;165.38261132792;156.361082468524;147.339553609128;138.318024749732;11295.687827095455;9706.318672683403;20512.285177739876;31237.895056301717;29758.93990126312;28279.984746224523;26801.02959118593;25322.07443614733;23843.11928110873;1.2058823529411764;1.1940298507462686;0.5757575757575758;0.38095238095238093;1.8823529411764706;2.4776119402985075;2.0454545454545454;1.693121693121693;1.4558823529411764;1.8022388059701493;1.5416666666666667;1.3611111111111112;12.323529411764707;15.402985074626866;9.56060606060606;6.6878306878306875;47.361023617647064;53.529441626865655;29.94628524242424;20.228640989417986;158.04741297511833;211.51849686238478;145.04442725799532;106.82853537323626;6.984421999999999;7.250177731343284;7.103081333333334;6.974288148148149;5.377867647058824;5.88973880597015;5.593560606060605;5.3412037037037035;5.296176470588235;5.735074626865671;5.483636363636364;5.268095238095238;1.203058729750794;1.6386557949253728;1.2356268650460152;0.9705061854323386;166.1130562808155;144.87042795049854;155.3960998313627;165.2798680227604;0.097603009149356;-0.004436660402071276;-0.047088577467348174;-0.0001135507145418903;-4.171983540040072e-06;-7.018372846626965e-08;-5.563234066127687e-10;-2.1148183031172163e-12;-3.879275373153135e-15;56.05882352941177;1.794982698961935;-25.584775086505193;-0.42820069204152333;-0.4498269896193776;-0.4714532871972328;-0.49307958477508684;-0.5147058823529411;-0.5363321799307956;14.117647058823529;1.2664359861591672;-5.87543252595156;-0.17993079584775107;-0.19377162629757794;-0.20761245674740492;-0.22145328719723173;-0.23529411764705843;-0.24913494809688536;4.882352941176473;-0.6340830449827;-2.0363321799307967;0.01816608996539814;0.017301038062283974;0.01643598615916975;0.015570934256055574;0.014705882352941364;0.013840830449827146;372.0588235294118;-11.440311418685141;-173.70242214532874;-1.0164359861591699;-1.0380622837370233;-1.0596885813148775;-1.0813148788927336;-1.1029411764705888;-1.1245674740484422;1801.7470751176468;-55.4013138070937;-841.1783601107268;-4.922233929930762;-5.026962311418664;-5.1316906929065595;-5.236419074394448;-5.34114745588235;-5.445875837370224;3350.4256235366665;-103.02110874511371;-1564.2070802282344;-9.153104179622275;-9.347851077061065;-9.542597974499827;-9.737344871938589;-9.932091769377351;-10.126838666816113;0.35294988235294095;-0.010852737024223945;-0.16478106574394674;-0.0009642318339099058;-0.0009847474048441489;-0.0010052629757783963;-0.0010257785467126437;-0.0010462941176468867;-0.001066809688581135;1.8230882352941136;-0.05605752595154559;-0.8511418685120985;-0.004980536332180485;-0.005086505190312021;-0.005192474048443571;-0.005298442906575093;-0.005404411764706629;-0.005510380622838158;1.3394117647058814;-0.04118512110725066;-0.6253287197231683;-0.00365916955017382;-0.003737024221454152;-0.003814878892734491;-0.0038927335640148303;-0.003970588235295173;-0.004048442906575505;14.977961415693942;-0.4605522895199995;-6.992733439366061;-0.040918634418601274;-0.041789243661550235;-0.04265985290449925;-0.04353046214744821;-0.04440107139039723;-0.04527168063334619;81.36052412809384;-2.501727346184672;-37.984639025624816;-0.2222706715891909;-0.22699983481449304;-0.2317289980397952;-0.2364581612650971;-0.24118732449039926;-0.2459164877157014;0.0014353383698434707;-6.621881197121307e-05;-0.0003567316474799104;-6.00797431438573e-07;0.8243944636678201;0.02679078655167067;-0.1938240536856454;-0.002265612127203827;0.20761245674740483;0.018902029644166676;-0.044510852469329995;-0.0009520147928452437;0.07179930795847754;-0.00946392604451791;-0.015426758938869672;9.611687812379968e-05;5.471453287197233;-0.17075091669679315;-1.3159274404949146;-0.005377968180736348;26.49628051643598;-0.826885280702891;-6.372563334172172;-0.026043565766829428;49.2709650520098;-1.5376284887330405;-11.850053638092685;-0.0484291226435041;0.005190439446366778;-0.00016198114961528276;-0.0012483414071511117;-5.101755734973047e-06;0.026810121107266376;-0.0008366794918141133;-0.006448044458424989;-2.6352044085611034e-05;0.01969723183391002;-0.0006147033001082187;-0.004737338785781578;-1.9360685450655133e-05;0.2202641384660874;-0.006873914768955216;-0.052975253328530765;-0.00021650071120953056;1.19647829600138;-0.03733921412215928;-0.28776241686079407;-0.0011760352994137084;-0.04613463512330858;-0.24853487858672196;-0.0004185754690749975;0.03249753331976001;-0.23511081433431907;-0.002748213661120277;-0.13181082539111685;-0.21485943775100402;0.0013386880856760528;-0.031207598371777525;-0.24050784525092822;-0.0009829140263922873;-0.031207598371777636;-0.2405078452509283;-0.0009829140263922806;-0.031207598371778177;-0.2405078452509286;-0.0009829140263922767;-0.03120759837178466;-0.2405078452509315;-0.0009829140263921566;-0.031207598371771145;-0.24050784525092536;-0.000982914026392399;-0.03120759837176554;-0.2405078452509226;-0.0009829140263925055;-0.031207598371777383;-0.24050784525092822;-0.0009829140263922888;-0.031207598371777074;-0.24050784525092808;-0.000982914026392295;1.5607839990952237;1.4549063504702;0.9655999658183243;1.4984260230849948;1.512075105726732;1.0054631156414997;1.6897590361445773;1.2995162468054027;0.8712947026200033;1.545454545454545;1.466552880584501;0.9766191940104981;1.5454545454545459;1.4665528805845014;0.9766191940104985;1.5454545454545456;1.466552880584501;0.9766191940104983;1.5454545454545447;1.4665528805845005;0.9766191940104979;1.5454545454545459;1.4665528805845014;0.9766191940104986;1.545454545454545;1.4665528805845007;0.9766191940104982;1.5454545454545452;1.466552880584501;0.9766191940104981;1.545454545454546;1.4665528805845014;0.9766191940104987;0.21568407445365245;-0.19736592679789453;2.21326498615602;0.9871436102075701;2.21326498615602;0.9871436102075701;2.0258225382221866;1.303126914571403;6.21579637498545;5.802686323881783;12.226796374985438;11.813686323881798;20.79532265110095;20.38221259999728;2.9617963749854597;2.5486863238817916;2.765796374985456;2.3526863238817888;2.7157963749854614;2.3026863238817907;1.8857963749854616;1.4726863238817924;11.476096374985463;11.062986323881766;2.9121609469850025;335.49479071106396;167.74739535553198;265.9931378567927;335.49479071106396;15.249763214139271;167.74739535553198;4.609588476862673;0.20952674894830334;2.31659594589642;104.95967524820396;4.770894329463816;5.4420335915023275;335.49479071106396;167.74739535553198;265.9931378567927;335.49479071106396;15.249763214139271;167.74739535553198;4.609588476862673;0.20952674894830334;2.31659594589642;104.95967524820396;4.770894329463816;5.4420335915023275;335.49479071106396;167.74739535553198;265.9931378567927;335.49479071106396;15.249763214139271;167.74739535553198;4.609588476862673;0.20952674894830334;2.31659594589642;104.95967524820396;4.770894329463816;5.4420335915023275;335.49479071106396;167.74739535553198;265.9931378567927;335.49479071106396;15.249763214139271;167.74739535553198;4.609588476862673;0.20952674894830334;2.31659594589642;104.95967524820396;4.770894329463816;5.4420335915023275;335.49479071106396;167.74739535553198;265.9931378567927;335.49479071106396;15.249763214139271;167.74739535553198;4.609588476862673;0.20952674894830334;2.31659594589642;104.95967524820396;4.770894329463816;5.4420335915023275;335.49479071106396;167.74739535553198;265.9931378567927;335.49479071106396;15.249763214139271;167.74739535553198;4.609588476862673;0.20952674894830334;2.31659594589642;104.95967524820396;4.770894329463816;5.4420335915023275;335.49479071106396;167.74739535553198;265.9931378567927;335.49479071106396;15.249763214139271;167.74739535553198;4.609588476862673;0.20952674894830334;2.31659594589642;104.95967524820396;4.770894329463816;5.4420335915023275;335.49479071106396;167.74739535553198;265.9931378567927;335.49479071106396;15.249763214139271;167.74739535553198;4.609588476862673;0.20952674894830334;2.31659594589642;104.95967524820396;4.770894329463816;5.4420335915023275;152.8771237954945;67.0;21.0;67.0;67.0;0.05434215418088575;0.022152461024534803;2.0;20.0;0.0;0.0;0.0;0.0;0.0;0.0;0.0;0.0;0.0;0.0;0.0;0.0;0.0;0.0;0.0;0.0;16.142135623730958;10.914213562373096;7.36396103067893;4.957106781186548;3.328427124746191;2.228553390593274;1.4874368670764586;0.989276695296637;0.7337334374423162;0.5197244553510998;16.142135623730958;10.914213562373096;7.36396103067893;4.957106781186548;3.328427124746191;2.228553390593274;1.4874368670764586;0.989276695296637;0.7337334374423162;0.5197244553510998;29.666666666666664;25.860461243859795;34.46203948707513;65.42024763292062;61.68627450980392;62.480000000000004;40.366753293413176;77.55166185625606;0.4362745098039215;0.380300900644997;0.5067946983393402;0.9620624651900092;0.9071510957324106;0.9188235294117648;0.5936287249031349;1.1404656155331774;335.49479071106396;167.74739535553198;265.9931378567927;335.49479071106396;15.249763214139271;167.74739535553198;4.609588476862673;0.20952674894830334;2.31659594589642;104.95967524820396;4.770894329463816;5.4420335915023275;2.0;20.0;0.0;0.0;4.598430817609168;29.40156918239083;0.0;0.0;2.299215408804584;2.299215408804584;662.0;11.0;0.09090909090909091;0.0;0.0;10.5;0.4772727272727273;10.5;0.4772727272727273;31.11298783607599;1.414226719821636;10.914213562373096;0.49610061647150433;31.11298783607599;1.414226719821636;10.914213562373096;0.49610061647150433;0.0;0.0;0.0;0.0;0.4294117647058823;0.7;0.4294117647058823;0.4294117647058823;0.7;-10.5;-0.4772727272727273;0.7142857142857143;0.00028571428571433355;21.0;0.9081783472997051;1.0503685489507828;1.5662047702829414;1.9752999727760718;2.3696283719395543;2.747238387859255;61.75612761637995;71.42506132865323;106.50192437924001;134.32039814877288;161.1347292918897;186.81221037442933;0.14918831884206937;0.1725461947518092;0.25728366827472077;0.32448657581790735;0.3892637103067462;0.45129448170807784;0.1497139786088721;0.17315415516854898;0.25819019818347727;0.3256298927953955;0.39063526722737363;0.45288460185860485;5.179284493950634;5.037094292299557;4.521258070967398;4.112162868474267;3.7178344693107848;3.3402244533910843;6.710899743681759;8.418746255712854;10.456461671598865;12.334599139177467;14.139338534598998;15.86029969768104;87.07377858143167;81.65583489015047;78.27702034421522;72.84203980648243;66.76844291691322;60.272774594903325;22.0;0.0;0.0;-8.733776162495898;320.84000000000015;142.40303543015838;142.2639068579015;0.0;0.0;142.2639068579015;0.0;142.2639068579015;0.0;0.0;128.41643245852023;0.0;13.847474399381248;0.0;0.0;29.40156918239083;4.598430817609168;0.047619047619047616;42.82842728837083;1.9467466949259469;42.82842728837083;1.9467466949259469;20.0;19.0;18.0;17.0;16.0;15.0;14.0;13.0;12.0;187.0;3.091042453358316;3.044522437723423;2.995732273553991;2.9444389791664403;2.8903717578961645;2.833213344056216;2.772588722239781;2.70805020110221;2.6390573296152584;2.5649493574615367;5.236441962829949;67.412478;46.147521999999995;19.0;0.9047619047619048;8.828200000000002;103.6880000000001;0.5;0.22222222222222232;0.125;0.08000000000000002;0.05555555555555555;0.04081632653061225;0.03125;0.02469135802469135;0.020000000000000004;0.01652892561983471;0.023809523809523808;0.011111111111111117;0.006578947368421052;0.004444444444444445;0.00326797385620915;0.0025510204081632655;0.0020833333333333333;0.0017636684303350965;0.0015384615384615387;0.0013774104683195593;0.05852589476832236;21.0;11.0;0.9090909090909091;0.47619047619047616;389.0681338726023;5.392317422778761;21.0;4.418840607796598;5.081404364984463;5.752572638825633;6.424869023905388;7.10085190894405;7.776954403322442;8.455104999102815;9.133135301067211;9.812522917162035;106.95625616511066;3.7612001156935624;4.812184355372417;5.983936280687191;7.2115567333138015;8.470730317005897;52.23960780207286;310.3599514720013;4.564116933411784;1771.0;19.0;82.0;80.0;7.0;5.75