boiling_point;SMILES;IUPAC_name;InChIKey;SpAbs_A;SpMax_A;SpDiam_A;SpAD_A;SpMAD_A;LogEE_A;VE1_A;VE2_A;VE3_A;VR1_A;VR2_A;VR3_A;nAtom;nHeavyAtom;nH;nC;ATS0dv;ATS1dv;ATS2dv;ATS3dv;ATS4dv;ATS5dv;ATS6dv;ATS7dv;ATS8dv;ATS0d;ATS1d;ATS2d;ATS3d;ATS4d;ATS5d;ATS6d;ATS7d;ATS8d;ATS0s;ATS1s;ATS2s;ATS3s;ATS4s;ATS5s;ATS6s;ATS7s;ATS8s;ATS0Z;ATS1Z;ATS2Z;ATS3Z;ATS4Z;ATS5Z;ATS6Z;ATS7Z;ATS8Z;ATS0m;ATS1m;ATS2m;ATS3m;ATS4m;ATS5m;ATS6m;ATS7m;ATS8m;ATS0v;ATS1v;ATS2v;ATS3v;ATS4v;ATS5v;ATS6v;ATS7v;ATS8v;ATS0se;ATS1se;ATS2se;ATS3se;ATS4se;ATS5se;ATS6se;ATS7se;ATS8se;ATS0pe;ATS1pe;ATS2pe;ATS3pe;ATS4pe;ATS5pe;ATS6pe;ATS7pe;ATS8pe;ATS0are;ATS1are;ATS2are;ATS3are;ATS4are;ATS5are;ATS6are;ATS7are;ATS8are;ATS0p;ATS1p;ATS2p;ATS3p;ATS4p;ATS5p;ATS6p;ATS7p;ATS8p;ATS0i;ATS1i;ATS2i;ATS3i;ATS4i;ATS5i;ATS6i;ATS7i;ATS8i;AATS0dv;AATS1dv;AATS2dv;AATS3dv;AATS0d;AATS1d;AATS2d;AATS3d;AATS0s;AATS1s;AATS2s;AATS3s;AATS0Z;AATS1Z;AATS2Z;AATS3Z;AATS0m;AATS1m;AATS2m;AATS3m;AATS0v;AATS1v;AATS2v;AATS3v;AATS0se;AATS1se;AATS2se;AATS3se;AATS0pe;AATS1pe;AATS2pe;AATS3pe;AATS0are;AATS1are;AATS2are;AATS3are;AATS0p;AATS1p;AATS2p;AATS3p;AATS0i;AATS1i;AATS2i;AATS3i;ATSC0c;ATSC1c;ATSC2c;ATSC3c;ATSC4c;ATSC5c;ATSC6c;ATSC7c;ATSC8c;ATSC0dv;ATSC1dv;ATSC2dv;ATSC3dv;ATSC4dv;ATSC5dv;ATSC6dv;ATSC7dv;ATSC8dv;ATSC0d;ATSC1d;ATSC2d;ATSC3d;ATSC4d;ATSC5d;ATSC6d;ATSC7d;ATSC8d;ATSC0s;ATSC1s;ATSC2s;ATSC3s;ATSC4s;ATSC5s;ATSC6s;ATSC7s;ATSC8s;ATSC0Z;ATSC1Z;ATSC2Z;ATSC3Z;ATSC4Z;ATSC5Z;ATSC6Z;ATSC7Z;ATSC8Z;ATSC0m;ATSC1m;ATSC2m;ATSC3m;ATSC4m;ATSC5m;ATSC6m;ATSC7m;ATSC8m;ATSC0v;ATSC1v;ATSC2v;ATSC3v;ATSC4v;ATSC5v;ATSC6v;ATSC7v;ATSC8v;ATSC0se;ATSC1se;ATSC2se;ATSC3se;ATSC4se;ATSC5se;ATSC6se;ATSC7se;ATSC8se;ATSC0pe;ATSC1pe;ATSC2pe;ATSC3pe;ATSC4pe;ATSC5pe;ATSC6pe;ATSC7pe;ATSC8pe;ATSC0are;ATSC1are;ATSC2are;ATSC3are;ATSC4are;ATSC5are;ATSC6are;ATSC7are;ATSC8are;ATSC0p;ATSC1p;ATSC2p;ATSC3p;ATSC4p;ATSC5p;ATSC6p;ATSC7p;ATSC8p;ATSC0i;ATSC1i;ATSC2i;ATSC3i;ATSC4i;ATSC5i;ATSC6i;ATSC7i;ATSC8i;AATSC0c;AATSC1c;AATSC2c;AATSC3c;AATSC0dv;AATSC1dv;AATSC2dv;AATSC3dv;AATSC0d;AATSC1d;AATSC2d;AATSC3d;AATSC0s;AATSC1s;AATSC2s;AATSC3s;AATSC0Z;AATSC1Z;AATSC2Z;AATSC3Z;AATSC0m;AATSC1m;AATSC2m;AATSC3m;AATSC0v;AATSC1v;AATSC2v;AATSC3v;AATSC0se;AATSC1se;AATSC2se;AATSC3se;AATSC0pe;AATSC1pe;AATSC2pe;AATSC3pe;AATSC0are;AATSC1are;AATSC2are;AATSC3are;AATSC0p;AATSC1p;AATSC2p;AATSC3p;AATSC0i;AATSC1i;AATSC2i;AATSC3i;MATS1c;MATS2c;MATS3c;MATS1dv;MATS2dv;MATS3dv;MATS1s;MATS2s;MATS3s;MATS1Z;MATS2Z;MATS3Z;MATS1m;MATS2m;MATS3m;MATS1v;MATS2v;MATS3v;MATS1se;MATS2se;MATS3se;MATS1pe;MATS2pe;MATS3pe;MATS1are;MATS2are;MATS3are;MATS1p;MATS2p;MATS3p;MATS1i;MATS2i;MATS3i;GATS1c;GATS2c;GATS3c;GATS1dv;GATS2dv;GATS3dv;GATS1s;GATS2s;GATS3s;GATS1Z;GATS2Z;GATS3Z;GATS1m;GATS2m;GATS3m;GATS1v;GATS2v;GATS3v;GATS1se;GATS2se;GATS3se;GATS1pe;GATS2pe;GATS3pe;GATS1are;GATS2are;GATS3are;GATS1p;GATS2p;GATS3p;GATS1i;GATS2i;GATS3i;BCUTc-1h;BCUTc-1l;BCUTdv-1h;BCUTdv-1l;BCUTd-1h;BCUTd-1l;BCUTs-1h;BCUTs-1l;BCUTZ-1h;BCUTZ-1l;BCUTm-1h;BCUTm-1l;BCUTv-1h;BCUTv-1l;BCUTse-1h;BCUTse-1l;BCUTpe-1h;BCUTpe-1l;BCUTare-1h;BCUTare-1l;BCUTp-1h;BCUTp-1l;BCUTi-1h;BCUTi-1l;BalabanJ;SpAbs_DzZ;SpMax_DzZ;SpDiam_DzZ;SpAD_DzZ;SpMAD_DzZ;LogEE_DzZ;VE1_DzZ;VE2_DzZ;VE3_DzZ;VR1_DzZ;VR2_DzZ;VR3_DzZ;SpAbs_Dzm;SpMax_Dzm;SpDiam_Dzm;SpAD_Dzm;SpMAD_Dzm;LogEE_Dzm;VE1_Dzm;VE2_Dzm;VE3_Dzm;VR1_Dzm;VR2_Dzm;VR3_Dzm;SpAbs_Dzv;SpMax_Dzv;SpDiam_Dzv;SpAD_Dzv;SpMAD_Dzv;LogEE_Dzv;VE1_Dzv;VE2_Dzv;VE3_Dzv;VR1_Dzv;VR2_Dzv;VR3_Dzv;SpAbs_Dzse;SpMax_Dzse;SpDiam_Dzse;SpAD_Dzse;SpMAD_Dzse;LogEE_Dzse;VE1_Dzse;VE2_Dzse;VE3_Dzse;VR1_Dzse;VR2_Dzse;VR3_Dzse;SpAbs_Dzpe;SpMax_Dzpe;SpDiam_Dzpe;SpAD_Dzpe;SpMAD_Dzpe;LogEE_Dzpe;VE1_Dzpe;VE2_Dzpe;VE3_Dzpe;VR1_Dzpe;VR2_Dzpe;VR3_Dzpe;SpAbs_Dzare;SpMax_Dzare;SpDiam_Dzare;SpAD_Dzare;SpMAD_Dzare;LogEE_Dzare;VE1_Dzare;VE2_Dzare;VE3_Dzare;VR1_Dzare;VR2_Dzare;VR3_Dzare;SpAbs_Dzp;SpMax_Dzp;SpDiam_Dzp;SpAD_Dzp;SpMAD_Dzp;LogEE_Dzp;VE1_Dzp;VE2_Dzp;VE3_Dzp;VR1_Dzp;VR2_Dzp;VR3_Dzp;SpAbs_Dzi;SpMax_Dzi;SpDiam_Dzi;SpAD_Dzi;SpMAD_Dzi;LogEE_Dzi;VE1_Dzi;VE2_Dzi;VE3_Dzi;VR1_Dzi;VR2_Dzi;VR3_Dzi;BertzCT;nBonds;nBondsO;nBondsS;nBondsKS;RNCG;RPCG;C1SP3;C2SP3;C3SP3;C4SP3;Xc-3d;Xc-4d;Xc-5d;Xc-6d;Xc-3dv;Xc-4dv;Xc-5dv;Xc-6dv;Xpc-4d;Xpc-5d;Xpc-6d;Xpc-4dv;Xpc-5dv;Xpc-6dv;Xp-0d;Xp-1d;Xp-2d;Xp-3d;Xp-4d;Xp-5d;Xp-6d;Xp-7d;AXp-0d;AXp-1d;Xp-0dv;Xp-1dv;Xp-2dv;Xp-3dv;Xp-4dv;Xp-5dv;Xp-6dv;Xp-7dv;AXp-0dv;AXp-1dv;SZ;Sm;Sv;Sse;Spe;Sare;Sp;Si;MZ;Mm;Mv;Mse;Mpe;Mare;Mp;Mi;SpAbs_D;SpMax_D;SpDiam_D;SpAD_D;SpMAD_D;LogEE_D;VE1_D;VE2_D;VE3_D;VR1_D;VR2_D;VR3_D;NsCH3;NssCH2;NsssCH;NssssC;SsCH3;SssCH2;SsssCH;SssssC;MAXsCH3;MINsCH3;ECIndex;ETA_alpha;ETA_shape_p;ETA_shape_y;ETA_shape_x;ETA_beta;AETA_beta;ETA_beta_s;AETA_beta_s;ETA_eta;AETA_eta;ETA_eta_L;AETA_eta_L;ETA_eta_R;AETA_eta_R;ETA_eta_RL;AETA_eta_RL;ETA_eta_B;AETA_eta_B;ETA_eta_BR;AETA_eta_BR;ETA_epsilon_1;ETA_epsilon_2;ETA_epsilon_3;ETA_epsilon_4;ETA_epsilon_5;ETA_dBeta;AETA_dBeta;ETA_psi_1;ETA_dPsi_B;fragCpx;IC0;IC1;IC2;IC3;IC4;IC5;TIC0;TIC1;TIC2;TIC3;TIC4;TIC5;SIC0;SIC1;SIC2;SIC3;SIC4;SIC5;BIC0;BIC1;BIC2;BIC3;BIC4;BIC5;CIC0;CIC1;CIC2;CIC3;CIC4;CIC5;MIC0;MIC1;MIC2;MIC3;MIC4;MIC5;ZMIC0;ZMIC1;ZMIC2;ZMIC3;ZMIC4;ZMIC5;Kier1;Lipinski;GhoseFilter;FilterItLogS;VMcGowan;LabuteASA;PEOE_VSA6;PEOE_VSA7;SMR_VSA4;SMR_VSA5;SlogP_VSA4;SlogP_VSA5;EState_VSA3;EState_VSA4;EState_VSA5;EState_VSA7;EState_VSA8;VSA_EState4;VSA_EState5;VSA_EState7;VSA_EState8;MDEC-11;MID;AMID;MID_C;AMID_C;MPC2;MPC3;MPC4;MPC5;MPC6;MPC7;MPC8;MPC9;MPC10;TMPC10;piPC1;piPC2;piPC3;piPC4;piPC5;piPC6;piPC7;piPC8;piPC9;piPC10;TpiPC10;apol;bpol;nRot;RotRatio;SLogP;SMR;GGI1;GGI2;GGI3;GGI4;GGI5;GGI6;GGI7;GGI8;GGI9;GGI10;JGI1;JGI2;JGI3;JGI4;JGI5;JGI6;JGI7;JGI8;JGI9;JGI10;JGT10;Diameter;Radius;TopoShapeIndex;PetitjeanIndex;Vabc;VAdjMat;MWC01;MWC02;MWC03;MWC04;MWC05;MWC06;MWC07;MWC08;MWC09;MWC10;TMWC10;SRW02;SRW04;SRW06;SRW08;SRW10;TSRW10;MW;AMW;WPath;WPol;Zagreb1;Zagreb2;mZagreb1;mZagreb2
79.2;CCCC(C)(C)C;2,2-dimethylpentane;CXOWYJMDMMMMJO-UHFFFAOYSA-N;6.720566232730448;2.1010029896154583;4.2020059792309175;6.720566232730448;0.9600808903900641;2.7790329827767417;2.425220580329728;0.3464600829042469;0.5292475372747295;16.777640192483886;2.3968057417834125;2.4633721150583687;23.0;7.0;16.0;7.0;28.0;26.0;19.0;10.0;3.0;0.0;0.0;0.0;0.0;44.0;46.0;93.0;78.0;90.0;36.0;27.0;0.0;0.0;38.0625;44.625;68.125;94.0;92.25;54.0;27.0;0.0;0.0;268.0;312.0;422.0;394.0;267.0;126.0;27.0;0.0;0.0;1026.1058709999998;1059.2981339999997;1410.4796239999998;1071.5006439999997;702.5392109999998;236.21673599999997;27.433728000000002;0.0;0.0;3461.9582231401932;4376.8872724242765;6118.039963438034;6594.369706127367;4921.080765894767;2624.7664944260805;839.261099635117;0.0;0.0;160.27903600000005;159.12520800000001;296.735264;382.05198399999995;493.380588;249.049728;181.398528;0.0;0.0;122.95750000000004;128.775;231.98000000000002;298.80999999999995;367.3275;188.1;130.68;0.0;0.0;121.19000000000003;125.5;227.76;293.4;364.59;186.12;130.68;0.0;0.0;26.63610647758399;34.55010896;50.806666867886;60.14350144849;51.085755727299;28.046829867282;12.004548430922998;0.0;0.0;3846.242925017984;3210.7268999464004;6665.652931317486;8481.255853118491;12567.3891803389;6084.723595268682;4992.776604654722;0.0;0.0;1.2173913043478262;1.1818181818181819;0.4523809523809524;0.18518518518518517;1.9130434782608696;2.090909090909091;2.2142857142857144;1.4444444444444444;1.6548913043478262;2.028409090909091;1.6220238095238095;1.7407407407407407;11.652173913043478;14.181818181818182;10.047619047619047;7.296296296296297;44.61329873913042;48.149915181818166;33.582848190476184;19.842604518518513;150.51992274522578;198.94942147383074;145.66761817709605;122.11795752087717;6.968653739130437;7.232964000000001;7.065125333333333;7.07503674074074;5.3459782608695665;5.853409090909091;5.523333333333333;5.533518518518518;5.26913043478261;5.704545454545454;5.422857142857143;5.433333333333333;1.1580915859819125;1.5704594981818183;1.2096825444734762;1.1137685453424073;167.22795326165146;145.94213181574548;158.70602217422586;157.06029357626835;0.031533407084252826;-0.007752830206206214;0.009893581791631807;-0.03554744819716619;0.018118779915627825;-0.015145502841928175;0.014666715995914539;0.0;0.0;21.739130434782602;6.945179584120983;-13.393194706994331;-12.865784499054818;0.6862003780718344;0.40831758034026455;7.349716446124764;0.0;0.0;9.913043478260866;0.6918714555765587;-5.44990548204159;-2.6654064272211717;-0.5103969754253297;1.7013232514177707;1.275992438563328;0.0;0.0;3.3641304347826084;-2.022211720226842;2.519848771266541;-4.167414933837428;2.8139177693761797;-2.2329867674858224;1.4067816635160668;0.0;0.0;121.73913043478264;-12.098298676748582;23.34593572778827;-140.1701323251418;59.120982986767494;-53.591682419659726;62.52362948960303;0.0;0.0;589.5388264347828;-58.587709459356944;113.05597059735369;-678.7935400642717;286.30165833459307;-259.52524424574676;302.77945162003743;0.0;0.0;1096.2726219649105;-108.94634752446282;210.23240498861261;-1262.2455732717094;532.3901591918097;-482.59827379977037;563.031319433065;0.0;0.0;0.11548660869565203;-0.011476930056709507;0.02214688846880995;-0.13297099432892104;0.05608452930056534;-0.050839213610586284;0.05931241587901553;0.0;0.0;0.5965217391304339;-0.05928166351607159;0.1143950850661597;-0.686833648393197;0.28969281663516505;-0.26259924385633115;0.30636578449905827;0.0;0.0;0.43826086956521704;-0.04355387523629764;0.0840453686200357;-0.5046124763705127;0.2128355387523665;-0.19293005671077407;0.2250850661625738;0.0;0.0;4.900848691438608;-0.4870408637454456;0.9398366667588062;-5.6428250073008135;2.3800317208810857;-2.1574388261224327;2.5170119638094954;0.0;0.0;26.621487874186418;-2.645613701782644;5.105207690158312;-30.65191499799584;12.928370081757649;-11.71924194461463;13.672448935383944;0.0;0.0;0.0013710176993153402;-0.00035240137300937335;0.00023556147122932874;-0.0006582860777252998;0.9451795841209827;0.31568998109640833;-0.31888558826176977;-0.23825526850101517;0.4310018903591681;0.03144870252620721;-0.12975965433432357;-0.04935937828187355;0.1462665406427221;-0.09191871455576556;0.05999639931587002;-0.07717435062661904;5.293005671077506;-0.5499226671249355;0.5558556125663874;-2.5957431912063296;25.632122888468817;-2.663077702698043;2.6918088237465163;-12.570250741930957;47.66402704195263;-4.952106705657401;5.005533452109824;-23.374918023550176;0.005021156899810958;-0.0005216786389413412;0.0005273068683049988;-0.002462425820905945;0.025935727788279735;-0.002694621068912345;0.0027236925015752308;-0.012719141636911057;0.019054820415879;-0.001979721601649893;0.0020010802052389453;-0.009344675488342826;0.21308037788863513;-0.022138221079338435;0.02237706349425729;-0.10449675939445952;1.1574559945298442;-0.12025516826284745;0.12155256405138838;-0.5676280555184414;-0.25703634109563706;0.17181504757156935;-0.4801441134232149;0.33400000000000013;-0.33738095238095256;-0.2520740740740741;-0.62843295638126;0.4101853988768368;-0.5276281936217314;-0.10389610389610388;0.10501700680272101;-0.49041005291005285;-0.10389610389610326;0.10501700680272123;-0.4904100529100524;-0.10389610389610357;0.10501700680272115;-0.49041005291005285;-0.10389610389609254;0.10501700680272538;-0.49041005291004813;-0.10389610389611025;0.10501700680271861;-0.4904100529100553;-0.10389610389611054;0.10501700680271854;-0.49041005291005546;-0.1038961038961026;0.10501700680272164;-0.49041005291005246;-0.10389610389610951;0.10501700680271886;-0.4904100529100552;1.795522177260731;0.8670646712634232;1.6846629667608934;1.3800000000000003;2.5781904761904766;1.105703703703704;2.2294022617124396;0.42818678359873846;1.8430413450607315;1.6428571428571428;1.0756802721088434;1.673280423280423;1.6428571428571423;1.0756802721088434;1.673280423280423;1.6428571428571428;1.0756802721088434;1.673280423280423;1.6428571428571432;1.0756802721088439;1.6732804232804233;1.6428571428571417;1.0756802721088428;1.6732804232804221;1.6428571428571421;1.075680272108843;1.6732804232804228;1.6428571428571432;1.0756802721088436;1.6732804232804235;1.6428571428571421;1.075680272108843;1.6732804232804228;0.2151156617093974;-0.23617945008654212;4.017027410503575;0.9871950460800138;4.017027410503575;0.9871950460800138;2.0491726097643643;1.1727476569505384;6.226134174689563;5.778075729914844;12.237134174689567;11.789075729914844;20.80566045080509;20.35760200603038;2.972134174689561;2.524075729914843;2.776134174689562;2.3280757299148442;2.7261341746895615;2.2780757299148457;1.8961341746895621;1.4480757299148448;11.486434174689576;11.038375729914842;3.154490065368808;27.270524509078598;13.635262254539297;20.459815374097882;27.27052450907859;3.895789215582656;13.635265372503175;2.603824581508924;0.3719749402155606;0.6003064131265322;18.20070075460919;2.600100107801313;2.5447851524033007;27.270524509078598;13.635262254539297;20.459815374097882;27.27052450907859;3.895789215582656;13.635265372503175;2.603824581508924;0.3719749402155606;0.6003064131265322;18.20070075460919;2.600100107801313;2.5447851524033007;27.270524509078598;13.635262254539297;20.459815374097882;27.27052450907859;3.895789215582656;13.635265372503175;2.603824581508924;0.3719749402155606;0.6003064131265322;18.20070075460919;2.600100107801313;2.5447851524033007;27.270524509078598;13.635262254539297;20.459815374097882;27.27052450907859;3.895789215582656;13.635265372503175;2.603824581508924;0.3719749402155606;0.6003064131265322;18.20070075460919;2.600100107801313;2.5447851524033007;27.270524509078598;13.635262254539297;20.459815374097882;27.27052450907859;3.895789215582656;13.635265372503175;2.603824581508924;0.3719749402155606;0.6003064131265322;18.20070075460919;2.600100107801313;2.5447851524033007;27.270524509078598;13.635262254539297;20.459815374097882;27.27052450907859;3.895789215582656;13.635265372503175;2.603824581508924;0.3719749402155606;0.6003064131265322;18.20070075460919;2.600100107801313;2.5447851524033007;27.270524509078598;13.635262254539297;20.459815374097882;27.27052450907859;3.895789215582656;13.635265372503175;2.603824581508924;0.3719749402155606;0.6003064131265322;18.20070075460919;2.600100107801313;2.5447851524033007;27.270524509078598;13.635262254539297;20.459815374097882;27.27052450907859;3.895789215582656;13.635265372503175;2.603824581508924;0.3719749402155606;0.6003064131265322;18.20070075460919;2.600100107801313;2.5447851524033007;38.49022499567306;22.0;6.0;22.0;22.0;0.1682514435602178;0.06996624471381384;4.0;2.0;0.0;1.0;1.5606601717798214;0.3535533905932738;0.0;0.0;1.5606601717798214;0.3535533905932738;0.0;0.0;0.75;1.0;0.25;0.75;1.0;0.25;5.914213562373095;3.060660171779821;3.310660171779821;1.0;0.75;0.0;0.0;0.0;0.844887651767585;0.5101100286299701;5.914213562373095;3.060660171779821;3.310660171779821;1.0;0.75;0.0;0.0;0.0;0.844887651767585;0.5101100286299701;9.666666666666663;8.34276912829906;11.334622430286997;22.10269482884195;20.803921568627455;21.08;13.38843592814371;26.322317167393408;0.4202898550724636;0.3627290925347418;0.49280967088204336;0.9609867316887805;0.9045183290707589;0.9165217391304347;0.5821059099192918;1.1444485724953655;27.270524509078598;13.635262254539297;20.459815374097882;27.27052450907859;3.895789215582656;13.635265372503175;2.603824581508924;0.3719749402155606;0.6003064131265322;18.20070075460919;2.600100107801313;2.5447851524033007;4.0;2.0;0.0;1.0;9.050347222222221;2.6493055555555554;0.0;0.5503472222222222;2.2743055555555554;2.2274305555555554;38.0;3.5;0.5714285714285714;0.0;0.14285714285714285;3.0;0.42857142857142855;3.0;0.42857142857142855;7.775423877302767;1.110774839614681;3.060660171779821;0.43723716739711727;7.775423877302767;1.110774839614681;3.060660171779821;0.43723716739711727;0.35355339059327395;0.05050762722761056;0.35355339059327395;0.05050762722761056;0.42173913043478256;0.7;0.42173913043478256;0.42173913043478256;0.7;-3.0;-0.42857142857142855;0.7142857142857144;0.00028571428571444457;6.0;0.8865408928220899;1.306170651709187;2.0985864121084328;2.6957749987827633;2.6957749987827633;2.6957749987827633;20.39044053490807;30.041924989311298;48.267487478493955;62.00282497200355;62.00282497200355;62.00282497200355;0.19598292262472913;0.28874826174542273;0.46392343743594416;0.595940770784214;0.595940770784214;0.595940770784214;0.1988013201316891;0.2929007020200309;0.4705950425022357;0.6045108949571766;0.6045108949571766;0.6045108949571766;3.637021063234923;3.217391304347826;2.4249755439485803;1.8277869572742498;1.8277869572742498;1.8277869572742498;6.640762870645904;11.680935904638826;14.988907200412363;15.590873295780092;15.590873295780092;15.590873295780092;27.765075162887893;21.217420313642563;19.25152914777305;18.762188765381485;18.762188765381485;18.762188765381485;7.0;1.0;0.0;-2.207932278361068;109.49000000000004;46.92890371420919;34.11577042168851;11.83581209232279;5.41499046939678;40.53659204461451;5.41499046939678;40.53659204461451;5.41499046939678;0.0;12.841643245852019;0.0;27.694948798762496;0.5503472222222222;0.0;2.6493055555555554;9.050347222222221;2.121320343559643;12.448985386504598;1.778426483786371;12.448985386504598;1.778426483786371;8.0;4.0;3.0;0.0;0.0;0.0;0.0;0.0;0.0;28.0;1.9459101490553132;2.1972245773362196;1.6094379124341003;1.3862943611198906;0.0;0.0;0.0;0.0;0.0;0.0;3.367295829986474;22.358688;16.051312;1.0;0.16666666666666666;2.832600000000001;34.362999999999985;3.0;0.666666666666667;0.375;0.0;0.0;0.0;0.0;0.0;0.0;0.0;0.5;0.08333333333333337;0.09375;0.0;0.0;0.0;0.0;0.0;0.0;0.0;0.6770833333333333;4.0;2.0;1.0;0.5;129.62835551474285;3.584962500721156;6.0;3.367295829986474;3.970291913552122;4.812184355372417;5.43372200355424;6.285998094508865;6.912742820493176;7.767687277186908;8.395929103923198;9.251578279992428;69.19742967856983;2.5649493574615367;3.8066624897703196;5.198497031265826;6.650279048587422;8.12355783506165;33.34394576214675;100.12520051199999;4.353269587478261;46.0;4.0;28.0;26.0;4.5625;1.625