boiling_point;SMILES;IUPAC_name;InChIKey;SpAbs_A;SpMax_A;SpDiam_A;SpAD_A;SpMAD_A;LogEE_A;VE1_A;VE2_A;VE3_A;VR1_A;VR2_A;VR3_A;nAtom;nHeavyAtom;nH;nC;ATS0dv;ATS1dv;ATS2dv;ATS3dv;ATS4dv;ATS5dv;ATS6dv;ATS7dv;ATS8dv;ATS0d;ATS1d;ATS2d;ATS3d;ATS4d;ATS5d;ATS6d;ATS7d;ATS8d;ATS0s;ATS1s;ATS2s;ATS3s;ATS4s;ATS5s;ATS6s;ATS7s;ATS8s;ATS0Z;ATS1Z;ATS2Z;ATS3Z;ATS4Z;ATS5Z;ATS6Z;ATS7Z;ATS8Z;ATS0m;ATS1m;ATS2m;ATS3m;ATS4m;ATS5m;ATS6m;ATS7m;ATS8m;ATS0v;ATS1v;ATS2v;ATS3v;ATS4v;ATS5v;ATS6v;ATS7v;ATS8v;ATS0se;ATS1se;ATS2se;ATS3se;ATS4se;ATS5se;ATS6se;ATS7se;ATS8se;ATS0pe;ATS1pe;ATS2pe;ATS3pe;ATS4pe;ATS5pe;ATS6pe;ATS7pe;ATS8pe;ATS0are;ATS1are;ATS2are;ATS3are;ATS4are;ATS5are;ATS6are;ATS7are;ATS8are;ATS0p;ATS1p;ATS2p;ATS3p;ATS4p;ATS5p;ATS6p;ATS7p;ATS8p;ATS0i;ATS1i;ATS2i;ATS3i;ATS4i;ATS5i;ATS6i;ATS7i;ATS8i;AATS0dv;AATS1dv;AATS2dv;AATS3dv;AATS0d;AATS1d;AATS2d;AATS3d;AATS0s;AATS1s;AATS2s;AATS3s;AATS0Z;AATS1Z;AATS2Z;AATS3Z;AATS0m;AATS1m;AATS2m;AATS3m;AATS0v;AATS1v;AATS2v;AATS3v;AATS0se;AATS1se;AATS2se;AATS3se;AATS0pe;AATS1pe;AATS2pe;AATS3pe;AATS0are;AATS1are;AATS2are;AATS3are;AATS0p;AATS1p;AATS2p;AATS3p;AATS0i;AATS1i;AATS2i;AATS3i;ATSC0c;ATSC1c;ATSC2c;ATSC3c;ATSC4c;ATSC5c;ATSC6c;ATSC7c;ATSC8c;ATSC0dv;ATSC1dv;ATSC2dv;ATSC3dv;ATSC4dv;ATSC5dv;ATSC6dv;ATSC7dv;ATSC8dv;ATSC0d;ATSC1d;ATSC2d;ATSC3d;ATSC4d;ATSC5d;ATSC6d;ATSC7d;ATSC8d;ATSC0s;ATSC1s;ATSC2s;ATSC3s;ATSC4s;ATSC5s;ATSC6s;ATSC7s;ATSC8s;ATSC0Z;ATSC1Z;ATSC2Z;ATSC3Z;ATSC4Z;ATSC5Z;ATSC6Z;ATSC7Z;ATSC8Z;ATSC0m;ATSC1m;ATSC2m;ATSC3m;ATSC4m;ATSC5m;ATSC6m;ATSC7m;ATSC8m;ATSC0v;ATSC1v;ATSC2v;ATSC3v;ATSC4v;ATSC5v;ATSC6v;ATSC7v;ATSC8v;ATSC0se;ATSC1se;ATSC2se;ATSC3se;ATSC4se;ATSC5se;ATSC6se;ATSC7se;ATSC8se;ATSC0pe;ATSC1pe;ATSC2pe;ATSC3pe;ATSC4pe;ATSC5pe;ATSC6pe;ATSC7pe;ATSC8pe;ATSC0are;ATSC1are;ATSC2are;ATSC3are;ATSC4are;ATSC5are;ATSC6are;ATSC7are;ATSC8are;ATSC0p;ATSC1p;ATSC2p;ATSC3p;ATSC4p;ATSC5p;ATSC6p;ATSC7p;ATSC8p;ATSC0i;ATSC1i;ATSC2i;ATSC3i;ATSC4i;ATSC5i;ATSC6i;ATSC7i;ATSC8i;AATSC0c;AATSC1c;AATSC2c;AATSC3c;AATSC0dv;AATSC1dv;AATSC2dv;AATSC3dv;AATSC0d;AATSC1d;AATSC2d;AATSC3d;AATSC0s;AATSC1s;AATSC2s;AATSC3s;AATSC0Z;AATSC1Z;AATSC2Z;AATSC3Z;AATSC0m;AATSC1m;AATSC2m;AATSC3m;AATSC0v;AATSC1v;AATSC2v;AATSC3v;AATSC0se;AATSC1se;AATSC2se;AATSC3se;AATSC0pe;AATSC1pe;AATSC2pe;AATSC3pe;AATSC0are;AATSC1are;AATSC2are;AATSC3are;AATSC0p;AATSC1p;AATSC2p;AATSC3p;AATSC0i;AATSC1i;AATSC2i;AATSC3i;MATS1c;MATS2c;MATS3c;MATS1dv;MATS2dv;MATS3dv;MATS1s;MATS2s;MATS3s;MATS1Z;MATS2Z;MATS3Z;MATS1m;MATS2m;MATS3m;MATS1v;MATS2v;MATS3v;MATS1se;MATS2se;MATS3se;MATS1pe;MATS2pe;MATS3pe;MATS1are;MATS2are;MATS3are;MATS1p;MATS2p;MATS3p;MATS1i;MATS2i;MATS3i;GATS1c;GATS2c;GATS3c;GATS1dv;GATS2dv;GATS3dv;GATS1s;GATS2s;GATS3s;GATS1Z;GATS2Z;GATS3Z;GATS1m;GATS2m;GATS3m;GATS1v;GATS2v;GATS3v;GATS1se;GATS2se;GATS3se;GATS1pe;GATS2pe;GATS3pe;GATS1are;GATS2are;GATS3are;GATS1p;GATS2p;GATS3p;GATS1i;GATS2i;GATS3i;BCUTc-1h;BCUTc-1l;BCUTdv-1h;BCUTdv-1l;BCUTd-1h;BCUTd-1l;BCUTs-1h;BCUTs-1l;BCUTZ-1h;BCUTZ-1l;BCUTm-1h;BCUTm-1l;BCUTv-1h;BCUTv-1l;BCUTse-1h;BCUTse-1l;BCUTpe-1h;BCUTpe-1l;BCUTare-1h;BCUTare-1l;BCUTp-1h;BCUTp-1l;BCUTi-1h;BCUTi-1l;BalabanJ;SpAbs_DzZ;SpMax_DzZ;SpDiam_DzZ;SpAD_DzZ;SpMAD_DzZ;LogEE_DzZ;VE1_DzZ;VE2_DzZ;VE3_DzZ;VR1_DzZ;VR2_DzZ;VR3_DzZ;SpAbs_Dzm;SpMax_Dzm;SpDiam_Dzm;SpAD_Dzm;SpMAD_Dzm;LogEE_Dzm;VE1_Dzm;VE2_Dzm;VE3_Dzm;VR1_Dzm;VR2_Dzm;VR3_Dzm;SpAbs_Dzv;SpMax_Dzv;SpDiam_Dzv;SpAD_Dzv;SpMAD_Dzv;LogEE_Dzv;VE1_Dzv;VE2_Dzv;VE3_Dzv;VR1_Dzv;VR2_Dzv;VR3_Dzv;SpAbs_Dzse;SpMax_Dzse;SpDiam_Dzse;SpAD_Dzse;SpMAD_Dzse;LogEE_Dzse;VE1_Dzse;VE2_Dzse;VE3_Dzse;VR1_Dzse;VR2_Dzse;VR3_Dzse;SpAbs_Dzpe;SpMax_Dzpe;SpDiam_Dzpe;SpAD_Dzpe;SpMAD_Dzpe;LogEE_Dzpe;VE1_Dzpe;VE2_Dzpe;VE3_Dzpe;VR1_Dzpe;VR2_Dzpe;VR3_Dzpe;SpAbs_Dzare;SpMax_Dzare;SpDiam_Dzare;SpAD_Dzare;SpMAD_Dzare;LogEE_Dzare;VE1_Dzare;VE2_Dzare;VE3_Dzare;VR1_Dzare;VR2_Dzare;VR3_Dzare;SpAbs_Dzp;SpMax_Dzp;SpDiam_Dzp;SpAD_Dzp;SpMAD_Dzp;LogEE_Dzp;VE1_Dzp;VE2_Dzp;VE3_Dzp;VR1_Dzp;VR2_Dzp;VR3_Dzp;SpAbs_Dzi;SpMax_Dzi;SpDiam_Dzi;SpAD_Dzi;SpMAD_Dzi;LogEE_Dzi;VE1_Dzi;VE2_Dzi;VE3_Dzi;VR1_Dzi;VR2_Dzi;VR3_Dzi;BertzCT;nBonds;nBondsO;nBondsS;nBondsKS;RNCG;RPCG;C1SP3;C2SP3;C3SP3;C4SP3;Xc-3d;Xc-4d;Xc-5d;Xc-6d;Xc-3dv;Xc-4dv;Xc-5dv;Xc-6dv;Xpc-4d;Xpc-5d;Xpc-6d;Xpc-4dv;Xpc-5dv;Xpc-6dv;Xp-0d;Xp-1d;Xp-2d;Xp-3d;Xp-4d;Xp-5d;Xp-6d;Xp-7d;AXp-0d;AXp-1d;Xp-0dv;Xp-1dv;Xp-2dv;Xp-3dv;Xp-4dv;Xp-5dv;Xp-6dv;Xp-7dv;AXp-0dv;AXp-1dv;SZ;Sm;Sv;Sse;Spe;Sare;Sp;Si;MZ;Mm;Mv;Mse;Mpe;Mare;Mp;Mi;SpAbs_D;SpMax_D;SpDiam_D;SpAD_D;SpMAD_D;LogEE_D;VE1_D;VE2_D;VE3_D;VR1_D;VR2_D;VR3_D;NsCH3;NssCH2;NsssCH;NssssC;SsCH3;SssCH2;SsssCH;SssssC;MAXsCH3;MINsCH3;ECIndex;ETA_alpha;ETA_shape_p;ETA_shape_y;ETA_shape_x;ETA_beta;AETA_beta;ETA_beta_s;AETA_beta_s;ETA_eta;AETA_eta;ETA_eta_L;AETA_eta_L;ETA_eta_R;AETA_eta_R;ETA_eta_RL;AETA_eta_RL;ETA_eta_B;AETA_eta_B;ETA_eta_BR;AETA_eta_BR;ETA_epsilon_1;ETA_epsilon_2;ETA_epsilon_3;ETA_epsilon_4;ETA_epsilon_5;ETA_dBeta;AETA_dBeta;ETA_psi_1;ETA_dPsi_B;fragCpx;IC0;IC1;IC2;IC3;IC4;IC5;TIC0;TIC1;TIC2;TIC3;TIC4;TIC5;SIC0;SIC1;SIC2;SIC3;SIC4;SIC5;BIC0;BIC1;BIC2;BIC3;BIC4;BIC5;CIC0;CIC1;CIC2;CIC3;CIC4;CIC5;MIC0;MIC1;MIC2;MIC3;MIC4;MIC5;ZMIC0;ZMIC1;ZMIC2;ZMIC3;ZMIC4;ZMIC5;Kier1;Lipinski;GhoseFilter;FilterItLogS;VMcGowan;LabuteASA;PEOE_VSA6;PEOE_VSA7;SMR_VSA4;SMR_VSA5;SlogP_VSA4;SlogP_VSA5;EState_VSA3;EState_VSA4;EState_VSA5;EState_VSA7;EState_VSA8;VSA_EState4;VSA_EState5;VSA_EState7;VSA_EState8;MDEC-11;MID;AMID;MID_C;AMID_C;MPC2;MPC3;MPC4;MPC5;MPC6;MPC7;MPC8;MPC9;MPC10;TMPC10;piPC1;piPC2;piPC3;piPC4;piPC5;piPC6;piPC7;piPC8;piPC9;piPC10;TpiPC10;apol;bpol;nRot;RotRatio;SLogP;SMR;GGI1;GGI2;GGI3;GGI4;GGI5;GGI6;GGI7;GGI8;GGI9;GGI10;JGI1;JGI2;JGI3;JGI4;JGI5;JGI6;JGI7;JGI8;JGI9;JGI10;JGT10;Diameter;Radius;TopoShapeIndex;PetitjeanIndex;Vabc;VAdjMat;MWC01;MWC02;MWC03;MWC04;MWC05;MWC06;MWC07;MWC08;MWC09;MWC10;TMWC10;SRW02;SRW04;SRW06;SRW08;SRW10;TSRW10;MW;AMW;WPath;WPol;Zagreb1;Zagreb2;mZagreb1;mZagreb2
442.0;CCCCCCCCCCCCCCCCCCCCCCCCCCC;heptacosane;BJQWYEJQWHSSCJ-UHFFFAOYSA-N;33.61329949070053;1.9874244197864857;3.97484883957297;33.61329949070053;1.2449370181740935;4.11195840329606;4.759027325241869;0.1762602713052544;2.5532950769360654;193.47590569103352;7.165774284853093;6.25840475933447;83.0;27.0;56.0;27.0;102.0;100.0;96.0;92.0;88.0;84.0;80.0;76.0;72.0;158.0;206.0;335.0;400.0;384.0;368.0;352.0;336.0;320.0;120.25;147.0;249.75;318.5;306.25;294.0;281.75;269.5;257.25;1028.0;1272.0;1567.0;1584.0;1520.0;1456.0;1392.0;1328.0;1264.0;3952.030851000001;4428.864073999998;4921.452336999999;4806.996791999999;4610.240062999999;4413.483333999999;4216.726604999999;4019.969875999999;3823.213146999999;13175.646035363996;17436.68996223162;23713.599956367056;25224.58491031728;24217.786565362156;23210.98822040703;22204.189875451906;21197.391530496778;20190.593185541653;579.827916;594.6408080000001;1151.2542760000001;1632.5649600000004;1569.6800600000001;1506.7951600000001;1443.9102600000003;1381.0253600000003;1318.1404600000003;446.6075;483.225;907.2625;1251.0;1202.6974999999998;1154.395;1106.0925;1057.79;1009.4875;439.79;470.5;889.2900000000001;1233.72;1186.1100000000001;1138.5;1090.89;1043.28;995.6700000000001;100.198622671544;134.86988136;201.541196910319;228.53331334369201;219.511784484296;210.4902556249;201.46872676550402;192.447197906108;183.425669046712;13778.836127787947;11871.515930262402;25133.296172569124;38632.6708314947;37153.7156764561;35674.760521417506;34195.8053663789;32716.850211340312;31237.895056301713;1.2289156626506024;1.2195121951219512;0.5925925925925926;0.39316239316239315;1.9036144578313252;2.5121951219512195;2.067901234567901;1.7094017094017093;1.4487951807228916;1.7926829268292683;1.5416666666666667;1.3611111111111112;12.385542168674698;15.512195121951219;9.67283950617284;6.769230769230769;47.614829530120495;54.010537487804854;30.37933541358024;20.54272133333333;158.7427233176385;212.64256051501974;146.38024664424108;107.7973714116123;6.985878506024096;7.251717170731709;7.106507876543211;6.976773333333335;5.3808132530120485;5.892987804878049;5.600385802469136;5.346153846153846;5.298674698795181;5.737804878048781;5.489444444444445;5.272307692307693;1.2072123213439037;1.6447546507317072;1.2440814624093766;0.976638091212359;166.01007382877043;144.77458451539513;155.1438035343773;165.0968838952765;0.11891445966181059;-0.004436660402071273;-0.05774430272357546;-0.00011355071454189009;-4.17198354004094e-06;-7.018372846605281e-08;-5.563234070735546e-10;-2.1148174357554783e-12;-3.877974330546152e-15;69.42168674698793;1.8725504427347885;-32.12425606038613;-0.3454782987371172;-0.3599941936420379;-0.37451008854695855;-0.38902598345187944;-0.4035418783568007;-0.41805777326172144;17.469879518072293;1.3189142110611132;-7.483379300333865;-0.14399767745681524;-0.15328785019596447;-0.16257802293511397;-0.1718681956742634;-0.1811583684134126;-0.190448541152562;5.716867469879518;-0.6299172593990405;-2.456416025547974;0.015096530701117494;0.014515894904920668;0.013935259108723896;0.013354623312527084;0.012773987516330243;0.012193351720133416;455.42168674698786;-11.380461605457928;-215.1001596748439;-0.8274060095804954;-0.8419219044854138;-0.8564377993903376;-0.8709536942952578;-0.8854695892001789;-0.8999854841051054;2205.4434410602403;-55.111482686021745;-1041.652714683844;-4.006829736100997;-4.077124994629102;-4.147420253157186;-4.217715511685262;-4.288010770213347;-4.358306028741438;4101.116254459093;-102.48215539924706;-1936.9977031184578;-7.450870992036883;-7.581588026984889;-7.712305061932923;-7.843022096880954;-7.973739131828978;-8.10445616677697;0.4320312289156622;-0.010795961097402735;-0.2040526154739447;-0.0007849104369283882;-0.0007986807954709942;-0.0008124511540135949;-0.000826221512556194;-0.0008399918710987973;-0.0008537622296414006;2.2315662650602364;-0.05576426186672734;-1.0539907824067178;-0.00405428944694506;-0.004125417331979228;-0.0041965452170133685;-0.004267673102047537;-0.004338800987081698;-0.004409928872115845;1.639518072289154;-0.04096966177963165;-0.7743605748294216;-0.002978661634490457;-0.0030309188561482223;-0.003083176077805984;-0.0031354332994637316;-0.003187690521121507;-0.0032399477427792617;18.333897815562505;-0.4581429173009861;-8.659280974866423;-0.033308860058872236;-0.03389322602481726;-0.034477591990762446;-0.035061957956707454;-0.0356463239226526;-0.03623068988859779;99.5900239148781;-2.4886395980507565;-47.03735168855178;-0.18093425649100725;-0.18410854169260515;-0.18728282689420306;-0.19045711209580066;-0.19363139729739842;-0.19680568249899677;0.0014327043332748265;-5.410561465940577e-05;-0.0003564463131084905;-4.852594638542312e-07;0.8364058644215413;0.022835981008960837;-0.19829787691596376;-0.0014764029860560564;0.21048047612135293;0.016084319647086745;-0.046193699384776944;-0.0006153746899863899;0.06887792132384962;-0.007681917797549275;-0.015163061886098604;6.451508846631408e-05;5.487008274060095;-0.13878611713973082;-1.3277787634249623;-0.003535923117865365;26.57160772361735;-0.6720912522685578;-6.429955028912617;-0.01712320400043161;49.41103921035052;-1.249782382917647;-11.956775945175666;-0.03184132902579864;0.005205195529104364;-0.000131658062163448;-0.0012595840461354611;-3.3543181065315734e-06;0.026886340542894415;-0.0006800519739844798;-0.006506115940782209;-1.7326023277542992e-05;0.019753229786616314;-0.000499630021702825;-0.004780003548329762;-1.2729323224318194e-05;0.22089033512725909;-0.005587108747573001;-0.05345235169670631;-0.0001423455558071463;1.1998798062033507;-0.030349263390862885;-0.29035402276883815;-0.0007732233183376378;-0.03776467579722678;-0.24879265374575768;-0.00033870174926116245;0.02730251183108838;-0.2370833172638103;-0.001765175316025716;-0.1115294661903413;-0.22014401123990154;0.0009366584709050321;-0.025293586269195922;-0.24198592331308377;-0.0006444173110839816;-0.025293586269196283;-0.2419859233130839;-0.0006444173110839725;-0.025293586269196405;-0.24198592331308397;-0.000644417311083969;-0.02529358626919858;-0.2419859233130849;-0.0006444173110839386;-0.025293586269188484;-0.24198592331308028;-0.0006444173110840833;-0.02529358626918553;-0.24198592331307897;-0.0006444173110841283;-0.025293586269196262;-0.24198592331308383;-0.0006444173110839745;-0.02529358626918955;-0.24198592331308072;-0.0006444173110840696;1.549890494702646;1.4630060936853992;0.971856329187831;1.4980909406456095;1.5092946122102668;1.0045138054509803;1.6617492096944153;1.32810365687078;0.8888078319058298;1.5370370370370374;1.4726549741981843;0.9810575227241896;1.5370370370370374;1.4726549741981847;0.9810575227241899;1.537037037037037;1.4726549741981838;0.9810575227241891;1.5370370370370372;1.472654974198184;0.9810575227241894;1.537037037037037;1.4726549741981843;0.9810575227241892;1.5370370370370379;1.4726549741981845;0.9810575227241898;1.5370370370370372;1.472654974198184;0.9810575227241893;1.5370370370370368;1.4726549741981836;0.9810575227241891;0.22119776873866687;-0.1978741406706291;2.218948134789245;0.9871436102075696;2.218948134789245;0.9871436102075696;2.025875806547683;1.3023988433001348;6.221290417626838;5.802156215408043;12.23229041762686;11.813156215408037;20.800816693742362;20.381682491523588;2.967290417626835;2.5481562154080395;2.771290417626834;2.3521562154080407;2.721290417626834;2.3021562154080373;1.8912904176268337;1.4721562154080408;11.481590417626816;11.06245621540806;2.9540148394146155;505.7247986048204;252.8623993024102;400.7554646015132;505.7247986048204;18.73054809647483;252.8623993024102;5.1063506064830655;0.18912409653640982;2.6237367550583883;143.640551401814;5.320020422289407;5.960565781137002;505.7247986048204;252.8623993024102;400.7554646015132;505.7247986048204;18.73054809647483;252.8623993024102;5.1063506064830655;0.18912409653640982;2.6237367550583883;143.640551401814;5.320020422289407;5.960565781137002;505.7247986048204;252.8623993024102;400.7554646015132;505.7247986048204;18.73054809647483;252.8623993024102;5.1063506064830655;0.18912409653640982;2.6237367550583883;143.640551401814;5.320020422289407;5.960565781137002;505.7247986048204;252.8623993024102;400.7554646015132;505.7247986048204;18.73054809647483;252.8623993024102;5.1063506064830655;0.18912409653640982;2.6237367550583883;143.640551401814;5.320020422289407;5.960565781137002;505.7247986048204;252.8623993024102;400.7554646015132;505.7247986048204;18.73054809647483;252.8623993024102;5.1063506064830655;0.18912409653640982;2.6237367550583883;143.640551401814;5.320020422289407;5.960565781137002;505.7247986048204;252.8623993024102;400.7554646015132;505.7247986048204;18.73054809647483;252.8623993024102;5.1063506064830655;0.18912409653640982;2.6237367550583883;143.640551401814;5.320020422289407;5.960565781137002;505.7247986048204;252.8623993024102;400.7554646015132;505.7247986048204;18.73054809647483;252.8623993024102;5.1063506064830655;0.18912409653640982;2.6237367550583883;143.640551401814;5.320020422289407;5.960565781137002;505.7247986048204;252.8623993024102;400.7554646015132;505.7247986048204;18.73054809647483;252.8623993024102;5.1063506064830655;0.18912409653640982;2.6237367550583883;143.640551401814;5.320020422289407;5.960565781137002;208.19280948873623;82.0;26.0;82.0;82.0;0.04448715459770468;0.01813509186694601;2.0;25.0;0.0;0.0;0.0;0.0;0.0;0.0;0.0;0.0;0.0;0.0;0.0;0.0;0.0;0.0;0.0;0.0;19.67766952966369;13.414213562373096;9.131727983645298;6.207106781186548;4.212310601229376;2.853553390593274;1.929378605318051;1.301776695296637;0.7288025751727292;0.5159312908605037;19.67766952966369;13.414213562373096;9.131727983645298;6.207106781186548;4.212310601229376;2.853553390593274;1.929378605318051;1.301776695296637;0.7288025751727292;0.5159312908605037;36.33333333333333;31.6996919490467;42.1711785060045;79.85943190094683;75.31372549019609;76.27999999999999;49.35952574850299;94.62811008587695;0.4377510040160642;0.38192399938610483;0.5080864880241506;0.9621618301318895;0.9073942830144107;0.9190361445783131;0.594693081307265;1.1400977118780355;505.7247986048204;252.8623993024102;400.7554646015132;505.7247986048204;18.73054809647483;252.8623993024102;5.1063506064830655;0.18912409653640982;2.6237367550583883;143.640551401814;5.320020422289407;5.960565781137002;2.0;25.0;0.0;0.0;4.607202693531829;36.89279730646817;0.0;0.0;2.3036013467659147;2.3036013467659147;1014.0;13.5;0.07407407407407407;0.0;0.0;13.0;0.48148148148148145;13.0;0.48148148148148145;40.6345185688079;1.5049821692151073;13.414213562373096;0.4968227245323369;40.6345185688079;1.5049821692151073;13.414213562373096;0.4968227245323369;0.0;0.0;0.0;0.0;0.4301204819277108;0.7;0.4301204819277108;0.4301204819277108;0.7;-13.0;-0.48148148148148145;0.7142857142857143;0.00028571428571433355;26.0;0.9100534290139191;1.0339758123156724;1.4865513652942204;1.8469395414517018;2.197958352835322;2.5386793251247686;75.53443460815528;85.81999242220081;123.3837633194203;153.29598194049126;182.43054328533174;210.7103839853558;0.14275259609204363;0.1621912810815686;0.23318308557977663;0.289714214530196;0.34477564829288204;0.39822174473803906;0.1431452591111897;0.16263741320001773;0.23382449159903046;0.2905111181332213;0.345724006856529;0.399317115028031;5.4649860023330055;5.341063619031252;4.888488066052704;4.5280998898952225;4.177081078511602;3.836360106222156;6.71632608865989;8.204757834497249;9.993838820151316;11.656691547475448;13.273615599489329;14.839821017379482;106.82895372746682;101.21923763107694;97.57822015310677;92.06572303428763;85.94329944587722;79.34526277890015;27.0;0.0;0.0;-10.711300637357862;391.2900000000001;174.22774600214143;174.36801497253157;0.0;0.0;174.36801497253157;0.0;174.36801497253157;0.0;0.0;160.5205405731503;0.0;13.847474399381248;0.0;0.0;36.89279730646817;4.607202693531829;0.038461538461538464;52.82842712985946;1.956608412217017;52.82842712985946;1.956608412217017;25.0;24.0;23.0;22.0;21.0;20.0;19.0;18.0;17.0;242.0;3.295836866004329;3.258096538021482;3.2188758248682006;3.1780538303479458;3.1354942159291497;3.091042453358316;3.044522437723423;2.995732273553991;2.9444389791664403;2.8903717578961645;5.493061443340548;82.430408;56.179592;24.0;0.9230769230769231;10.77869999999999;126.77300000000012;0.5;0.22222222222222232;0.125;0.08000000000000002;0.05555555555555555;0.04081632653061225;0.03125;0.02469135802469135;0.020000000000000004;0.01652892561983471;0.019230769230769232;0.008888888888888892;0.005208333333333333;0.003478260869565218;0.002525252525252525;0.0019436345966958213;0.0015625;0.0012995451591942815;0.0011111111111111113;0.0009722897423432184;0.04622058545715363;26.0;13.0;1.0;0.5;475.5480599918888;5.700439718141092;26.0;4.634728988229636;5.303304908059076;5.978885764901122;6.655440350367647;7.334981878871814;8.014666370464942;8.696008608880904;9.377294451639015;10.059679005711038;119.05499032712518;3.970291913552122;5.030437921392435;6.208590026096629;7.4413203897176174;8.704999678440762;58.35563992919957;380.43820179200156;4.583592792674717;3276.0;24.0;102.0;100.0;8.25;7.0