boiling_point;SMILES;IUPAC_name;InChIKey;SpAbs_A;SpMax_A;SpDiam_A;SpAD_A;SpMAD_A;LogEE_A;VE1_A;VE2_A;VE3_A;VR1_A;VR2_A;VR3_A;nAtom;nHeavyAtom;nH;nC;ATS0dv;ATS1dv;ATS2dv;ATS3dv;ATS4dv;ATS5dv;ATS6dv;ATS7dv;ATS8dv;ATS0d;ATS1d;ATS2d;ATS3d;ATS4d;ATS5d;ATS6d;ATS7d;ATS8d;ATS0s;ATS1s;ATS2s;ATS3s;ATS4s;ATS5s;ATS6s;ATS7s;ATS8s;ATS0Z;ATS1Z;ATS2Z;ATS3Z;ATS4Z;ATS5Z;ATS6Z;ATS7Z;ATS8Z;ATS0m;ATS1m;ATS2m;ATS3m;ATS4m;ATS5m;ATS6m;ATS7m;ATS8m;ATS0v;ATS1v;ATS2v;ATS3v;ATS4v;ATS5v;ATS6v;ATS7v;ATS8v;ATS0se;ATS1se;ATS2se;ATS3se;ATS4se;ATS5se;ATS6se;ATS7se;ATS8se;ATS0pe;ATS1pe;ATS2pe;ATS3pe;ATS4pe;ATS5pe;ATS6pe;ATS7pe;ATS8pe;ATS0are;ATS1are;ATS2are;ATS3are;ATS4are;ATS5are;ATS6are;ATS7are;ATS8are;ATS0p;ATS1p;ATS2p;ATS3p;ATS4p;ATS5p;ATS6p;ATS7p;ATS8p;ATS0i;ATS1i;ATS2i;ATS3i;ATS4i;ATS5i;ATS6i;ATS7i;ATS8i;AATS0dv;AATS1dv;AATS2dv;AATS3dv;AATS0d;AATS1d;AATS2d;AATS3d;AATS0s;AATS1s;AATS2s;AATS3s;AATS0Z;AATS1Z;AATS2Z;AATS3Z;AATS0m;AATS1m;AATS2m;AATS3m;AATS0v;AATS1v;AATS2v;AATS3v;AATS0se;AATS1se;AATS2se;AATS3se;AATS0pe;AATS1pe;AATS2pe;AATS3pe;AATS0are;AATS1are;AATS2are;AATS3are;AATS0p;AATS1p;AATS2p;AATS3p;AATS0i;AATS1i;AATS2i;AATS3i;ATSC0c;ATSC1c;ATSC2c;ATSC3c;ATSC4c;ATSC5c;ATSC6c;ATSC7c;ATSC8c;ATSC0dv;ATSC1dv;ATSC2dv;ATSC3dv;ATSC4dv;ATSC5dv;ATSC6dv;ATSC7dv;ATSC8dv;ATSC0d;ATSC1d;ATSC2d;ATSC3d;ATSC4d;ATSC5d;ATSC6d;ATSC7d;ATSC8d;ATSC0s;ATSC1s;ATSC2s;ATSC3s;ATSC4s;ATSC5s;ATSC6s;ATSC7s;ATSC8s;ATSC0Z;ATSC1Z;ATSC2Z;ATSC3Z;ATSC4Z;ATSC5Z;ATSC6Z;ATSC7Z;ATSC8Z;ATSC0m;ATSC1m;ATSC2m;ATSC3m;ATSC4m;ATSC5m;ATSC6m;ATSC7m;ATSC8m;ATSC0v;ATSC1v;ATSC2v;ATSC3v;ATSC4v;ATSC5v;ATSC6v;ATSC7v;ATSC8v;ATSC0se;ATSC1se;ATSC2se;ATSC3se;ATSC4se;ATSC5se;ATSC6se;ATSC7se;ATSC8se;ATSC0pe;ATSC1pe;ATSC2pe;ATSC3pe;ATSC4pe;ATSC5pe;ATSC6pe;ATSC7pe;ATSC8pe;ATSC0are;ATSC1are;ATSC2are;ATSC3are;ATSC4are;ATSC5are;ATSC6are;ATSC7are;ATSC8are;ATSC0p;ATSC1p;ATSC2p;ATSC3p;ATSC4p;ATSC5p;ATSC6p;ATSC7p;ATSC8p;ATSC0i;ATSC1i;ATSC2i;ATSC3i;ATSC4i;ATSC5i;ATSC6i;ATSC7i;ATSC8i;AATSC0c;AATSC1c;AATSC2c;AATSC3c;AATSC0dv;AATSC1dv;AATSC2dv;AATSC3dv;AATSC0d;AATSC1d;AATSC2d;AATSC3d;AATSC0s;AATSC1s;AATSC2s;AATSC3s;AATSC0Z;AATSC1Z;AATSC2Z;AATSC3Z;AATSC0m;AATSC1m;AATSC2m;AATSC3m;AATSC0v;AATSC1v;AATSC2v;AATSC3v;AATSC0se;AATSC1se;AATSC2se;AATSC3se;AATSC0pe;AATSC1pe;AATSC2pe;AATSC3pe;AATSC0are;AATSC1are;AATSC2are;AATSC3are;AATSC0p;AATSC1p;AATSC2p;AATSC3p;AATSC0i;AATSC1i;AATSC2i;AATSC3i;MATS1c;MATS2c;MATS3c;MATS1dv;MATS2dv;MATS3dv;MATS1s;MATS2s;MATS3s;MATS1Z;MATS2Z;MATS3Z;MATS1m;MATS2m;MATS3m;MATS1v;MATS2v;MATS3v;MATS1se;MATS2se;MATS3se;MATS1pe;MATS2pe;MATS3pe;MATS1are;MATS2are;MATS3are;MATS1p;MATS2p;MATS3p;MATS1i;MATS2i;MATS3i;GATS1c;GATS2c;GATS3c;GATS1dv;GATS2dv;GATS3dv;GATS1s;GATS2s;GATS3s;GATS1Z;GATS2Z;GATS3Z;GATS1m;GATS2m;GATS3m;GATS1v;GATS2v;GATS3v;GATS1se;GATS2se;GATS3se;GATS1pe;GATS2pe;GATS3pe;GATS1are;GATS2are;GATS3are;GATS1p;GATS2p;GATS3p;GATS1i;GATS2i;GATS3i;BCUTc-1h;BCUTc-1l;BCUTdv-1h;BCUTdv-1l;BCUTd-1h;BCUTd-1l;BCUTs-1h;BCUTs-1l;BCUTZ-1h;BCUTZ-1l;BCUTm-1h;BCUTm-1l;BCUTv-1h;BCUTv-1l;BCUTse-1h;BCUTse-1l;BCUTpe-1h;BCUTpe-1l;BCUTare-1h;BCUTare-1l;BCUTp-1h;BCUTp-1l;BCUTi-1h;BCUTi-1l;BalabanJ;SpAbs_DzZ;SpMax_DzZ;SpDiam_DzZ;SpAD_DzZ;SpMAD_DzZ;LogEE_DzZ;VE1_DzZ;VE2_DzZ;VE3_DzZ;VR1_DzZ;VR2_DzZ;VR3_DzZ;SpAbs_Dzm;SpMax_Dzm;SpDiam_Dzm;SpAD_Dzm;SpMAD_Dzm;LogEE_Dzm;VE1_Dzm;VE2_Dzm;VE3_Dzm;VR1_Dzm;VR2_Dzm;VR3_Dzm;SpAbs_Dzv;SpMax_Dzv;SpDiam_Dzv;SpAD_Dzv;SpMAD_Dzv;LogEE_Dzv;VE1_Dzv;VE2_Dzv;VE3_Dzv;VR1_Dzv;VR2_Dzv;VR3_Dzv;SpAbs_Dzse;SpMax_Dzse;SpDiam_Dzse;SpAD_Dzse;SpMAD_Dzse;LogEE_Dzse;VE1_Dzse;VE2_Dzse;VE3_Dzse;VR1_Dzse;VR2_Dzse;VR3_Dzse;SpAbs_Dzpe;SpMax_Dzpe;SpDiam_Dzpe;SpAD_Dzpe;SpMAD_Dzpe;LogEE_Dzpe;VE1_Dzpe;VE2_Dzpe;VE3_Dzpe;VR1_Dzpe;VR2_Dzpe;VR3_Dzpe;SpAbs_Dzare;SpMax_Dzare;SpDiam_Dzare;SpAD_Dzare;SpMAD_Dzare;LogEE_Dzare;VE1_Dzare;VE2_Dzare;VE3_Dzare;VR1_Dzare;VR2_Dzare;VR3_Dzare;SpAbs_Dzp;SpMax_Dzp;SpDiam_Dzp;SpAD_Dzp;SpMAD_Dzp;LogEE_Dzp;VE1_Dzp;VE2_Dzp;VE3_Dzp;VR1_Dzp;VR2_Dzp;VR3_Dzp;SpAbs_Dzi;SpMax_Dzi;SpDiam_Dzi;SpAD_Dzi;SpMAD_Dzi;LogEE_Dzi;VE1_Dzi;VE2_Dzi;VE3_Dzi;VR1_Dzi;VR2_Dzi;VR3_Dzi;BertzCT;nBonds;nBondsO;nBondsS;nBondsKS;RNCG;RPCG;C1SP3;C2SP3;C3SP3;C4SP3;Xc-3d;Xc-4d;Xc-5d;Xc-6d;Xc-3dv;Xc-4dv;Xc-5dv;Xc-6dv;Xpc-4d;Xpc-5d;Xpc-6d;Xpc-4dv;Xpc-5dv;Xpc-6dv;Xp-0d;Xp-1d;Xp-2d;Xp-3d;Xp-4d;Xp-5d;Xp-6d;Xp-7d;AXp-0d;AXp-1d;Xp-0dv;Xp-1dv;Xp-2dv;Xp-3dv;Xp-4dv;Xp-5dv;Xp-6dv;Xp-7dv;AXp-0dv;AXp-1dv;SZ;Sm;Sv;Sse;Spe;Sare;Sp;Si;MZ;Mm;Mv;Mse;Mpe;Mare;Mp;Mi;SpAbs_D;SpMax_D;SpDiam_D;SpAD_D;SpMAD_D;LogEE_D;VE1_D;VE2_D;VE3_D;VR1_D;VR2_D;VR3_D;NsCH3;NssCH2;NsssCH;NssssC;SsCH3;SssCH2;SsssCH;SssssC;MAXsCH3;MINsCH3;ECIndex;ETA_alpha;ETA_shape_p;ETA_shape_y;ETA_shape_x;ETA_beta;AETA_beta;ETA_beta_s;AETA_beta_s;ETA_eta;AETA_eta;ETA_eta_L;AETA_eta_L;ETA_eta_R;AETA_eta_R;ETA_eta_RL;AETA_eta_RL;ETA_eta_B;AETA_eta_B;ETA_eta_BR;AETA_eta_BR;ETA_epsilon_1;ETA_epsilon_2;ETA_epsilon_3;ETA_epsilon_4;ETA_epsilon_5;ETA_dBeta;AETA_dBeta;ETA_psi_1;ETA_dPsi_B;fragCpx;IC0;IC1;IC2;IC3;IC4;IC5;TIC0;TIC1;TIC2;TIC3;TIC4;TIC5;SIC0;SIC1;SIC2;SIC3;SIC4;SIC5;BIC0;BIC1;BIC2;BIC3;BIC4;BIC5;CIC0;CIC1;CIC2;CIC3;CIC4;CIC5;MIC0;MIC1;MIC2;MIC3;MIC4;MIC5;ZMIC0;ZMIC1;ZMIC2;ZMIC3;ZMIC4;ZMIC5;Kier1;Lipinski;GhoseFilter;FilterItLogS;VMcGowan;LabuteASA;PEOE_VSA6;PEOE_VSA7;SMR_VSA4;SMR_VSA5;SlogP_VSA4;SlogP_VSA5;EState_VSA3;EState_VSA4;EState_VSA5;EState_VSA7;EState_VSA8;VSA_EState4;VSA_EState5;VSA_EState7;VSA_EState8;MDEC-11;MID;AMID;MID_C;AMID_C;MPC2;MPC3;MPC4;MPC5;MPC6;MPC7;MPC8;MPC9;MPC10;TMPC10;piPC1;piPC2;piPC3;piPC4;piPC5;piPC6;piPC7;piPC8;piPC9;piPC10;TpiPC10;apol;bpol;nRot;RotRatio;SLogP;SMR;GGI1;GGI2;GGI3;GGI4;GGI5;GGI6;GGI7;GGI8;GGI9;GGI10;JGI1;JGI2;JGI3;JGI4;JGI5;JGI6;JGI7;JGI8;JGI9;JGI10;JGT10;Diameter;Radius;TopoShapeIndex;PetitjeanIndex;Vabc;VAdjMat;MWC01;MWC02;MWC03;MWC04;MWC05;MWC06;MWC07;MWC08;MWC09;MWC10;TMWC10;SRW02;SRW04;SRW06;SRW08;SRW10;TSRW10;MW;AMW;WPath;WPol;Zagreb1;Zagreb2;mZagreb1;mZagreb2
106.8;CCCCC(C)(C)C;2,2-dimethylhexane;FLTJDUOFAQWHDF-UHFFFAOYSA-N;8.312845350263808;2.1119907362530657;4.223981472506131;8.312845350263808;1.039105668782976;2.911428091086851;2.5420114495639425;0.3177514311954928;0.7098121255986692;23.971147695623085;2.9963934619528856;2.9537073764874378;26.0;8.0;18.0;8.0;32.0;30.0;23.0;16.0;10.0;3.0;0.0;0.0;0.0;50.0;54.0;106.0;96.0;105.0;63.0;36.0;27.0;0.0;42.3125;49.875;77.375;106.375;103.0;65.25;54.0;27.0;0.0;306.0;360.0;483.0;458.0;331.0;240.0;126.0;27.0;0.0;1172.4021199999997;1227.7764309999995;1604.1881609999998;1268.2573729999997;899.2959399999999;675.1054829999999;236.216736;27.433728000000002;0.0;3947.6426137513827;5029.877406914644;7031.587075100368;7601.168051082492;5927.879110849893;4081.819666259651;2624.7664944260805;839.261099635117;0.0;181.25648000000004;180.900988;339.464772;444.93688399999996;556.265488;311.98206000000005;249.04972799999996;181.398528;0.0;139.14000000000001;146.4975;265.7625;347.11249999999995;415.63;236.6475;188.1;130.68;0.0;137.12;142.75;260.85;341.01;412.20000000000005;233.90999999999997;186.12;130.68;0.0;30.314232287281996;39.566097580000005;58.49435701273501;69.16503030788601;60.107284586695;39.08120729637601;28.046829867282;12.004548430922998;0.0;4342.872585156481;3643.7663514622;7589.855130283336;9960.211008157088;14046.344335377495;7574.612575684176;6084.723595268682;4992.776604654722;0.0;1.2307692307692308;1.2;0.4791666666666667;0.25396825396825395;1.9230769230769231;2.16;2.2083333333333335;1.5238095238095237;1.6274038461538463;1.995;1.6119791666666667;1.6884920634920635;11.76923076923077;14.4;10.0625;7.26984126984127;45.09238923076922;49.11105723999998;33.4205866875;20.13106941269841;151.83240822120703;201.19509627658576;146.49139739792432;120.65346112829351;6.971403076923078;7.23603952;7.07218275;7.0624902222222214;5.351538461538462;5.8599;5.5367187499999995;5.509722222222221;5.273846153846154;5.71;5.434375;5.412857142857143;1.1659320110493074;1.5826439032000001;1.2186324377653126;1.0978576239346987;167.03356096755698;145.750654058488;158.12198188090284;158.09858743106489;0.03580138093603308;-0.00773399954912918;0.007770121378555469;-0.03618070458588959;0.01593918776971231;0.0027959242516876876;-0.015157725253202477;0.014666505520249248;0.0;24.461538461538467;7.094674556213022;-14.775147928994082;-10.964497041420117;4.408284023668637;-6.568047337278108;0.7455621301775142;7.828402366863905;0.0;10.615384615384615;0.7928994082840229;-5.905325443786984;-0.5680473372781065;-1.224852071005916;-1.7573964497041417;1.9171597633136106;1.437869822485208;0.0;3.540865384615385;-1.9888128698224865;2.4149408284023663;-3.916327662721895;1.2332655325443804;1.3860022189349115;-2.220044378698225;1.3205436390532557;0.0;138.46153846153845;-11.982248520710046;15.532544378698223;-141.27218934911244;60.94674556213017;-3.1065088757396513;-53.25443786982249;63.90532544378697;0.0;670.5194344615384;-58.02572028994063;75.21852630177526;-684.1304058875737;295.14316986982226;-15.04370526035505;-257.8920901775148;309.4705082130175;0.0;1246.8595205864642;-107.90130466613651;139.87206160425066;-1272.1697031624717;548.8313274376318;-27.97441232085007;-479.5613540717169;575.4736248860605;0.0;0.13135015384615373;-0.011366840236685239;0.014734792899409127;-0.1340164497041408;0.057816520710057745;-0.002946958579881904;-0.05051928994082863;0.06062314792899288;0.0;0.6784615384615371;-0.05871301775148015;0.07610946745562042;-0.6922337278106504;0.2986390532544384;-0.015221893491124006;-0.2609467455621294;0.31313609467455655;0.0;0.49846153846153785;-0.04313609467455701;0.05591715976331289;-0.5085798816568049;0.2194082840236694;-0.01118343195266253;-0.1917159763313605;0.23005917159763373;0.0;5.574042193009846;-0.4823690359335448;0.6252931947286677;-5.687190485389319;2.4535313926496336;-0.12505863894573346;-2.143862381926863;2.572634858312237;0.0;30.278285659102124;-2.620236258960829;3.3966025579120434;-30.89290897910533;13.327621465331358;-0.679320511582405;-11.645494484270028;13.974593381124125;0.0;0.001376976189847426;-0.0003093599819651672;0.0001618775287199056;-0.0005742968981887237;0.9408284023668642;0.2837869822485209;-0.3078155818540434;-0.1740396355780971;0.40828402366863903;0.03171597633136092;-0.12302761341222884;-0.009016624401239785;0.1361871301775148;-0.07955251479289946;0.050311267258382635;-0.062163931154315795;5.325443786982248;-0.4792899408284018;0.323594674556213;-2.242415703954166;25.789209017751475;-2.321028811597625;1.5670526312869846;-10.85921279186625;47.9561354071717;-4.316052186645461;2.914001283421889;-20.193169891467804;0.005051928994082836;-0.00045467360946740954;0.0003069748520710235;-0.0021272452333990603;0.026094674556212966;-0.002348520710059206;0.0015856139053254253;-0.010987836949375404;0.01917159763313607;-0.0017254437869822802;0.0011649408284023519;-0.008072696534234999;0.21438623819268637;-0.019294761437341792;0.013026941556847244;-0.09027286484744951;1.1645494484270047;-0.10480945035843316;0.07076255328983423;-0.4903636345889735;-0.2246661810466348;0.11756015094047648;-0.41707104481767243;0.3016352201257863;-0.3271750524109014;-0.18498552460816609;-0.5841412084181944;0.36942747227879597;-0.45645966012564804;-0.0899999999999999;0.060763888888888895;-0.4210758377425045;-0.0899999999999997;0.060763888888888985;-0.42107583774250434;-0.09000000000000016;0.06076388888888883;-0.42107583774250446;-0.08999999999999096;0.06076388888889243;-0.42107583774250096;-0.09000000000000151;0.060763888888888305;-0.42107583774250495;-0.09000000000000176;0.06076388888888819;-0.4210758377425051;-0.0900000000000001;0.060763888888888805;-0.4210758377425044;-0.09000000000000234;0.06076388888888792;-0.4210758377425053;1.7598448070053472;0.9454306566117286;1.5924930569326494;1.3899371069182387;2.44857180293501;1.0544574223819505;2.188730482009504;0.478049332428151;1.7475942628692116;1.625;1.1284722222222223;1.5762786596119929;1.6250000000000007;1.1284722222222223;1.5762786596119933;1.6249999999999998;1.128472222222222;1.5762786596119929;1.625;1.128472222222222;1.5762786596119926;1.6249999999999998;1.128472222222222;1.5762786596119929;1.6250000000000002;1.1284722222222223;1.5762786596119933;1.6250000000000002;1.1284722222222223;1.576278659611993;1.6250000000000002;1.1284722222222225;1.576278659611993;0.21646209806968406;-0.23620846121356426;4.0170282400326265;0.9871345365608588;4.0170282400326265;0.9871345365608588;2.0490395223918365;1.1725655516791966;6.226905480258247;5.777733065752995;12.23790548025825;11.788733065752995;20.80643175637381;20.357259341868534;2.972905480258253;2.523733065752996;2.7769054802582476;2.327733065752995;2.7269054802582535;2.2777330657529955;1.8969054802582492;1.447733065752995;11.487205480258265;11.038033065752996;3.1117661943884265;36.82652663973883;18.41326331986941;28.381300597339678;36.82652663973882;4.603315829967353;18.413263349534198;2.784279947645254;0.34803499345565675;0.8008457420096168;22.250659686535997;2.7813324608169996;2.8792281056916003;36.82652663973883;18.41326331986941;28.381300597339678;36.82652663973882;4.603315829967353;18.413263349534198;2.784279947645254;0.34803499345565675;0.8008457420096168;22.250659686535997;2.7813324608169996;2.8792281056916003;36.82652663973883;18.41326331986941;28.381300597339678;36.82652663973882;4.603315829967353;18.413263349534198;2.784279947645254;0.34803499345565675;0.8008457420096168;22.250659686535997;2.7813324608169996;2.8792281056916003;36.82652663973883;18.41326331986941;28.381300597339678;36.82652663973882;4.603315829967353;18.413263349534198;2.784279947645254;0.34803499345565675;0.8008457420096168;22.250659686535997;2.7813324608169996;2.8792281056916003;36.82652663973883;18.41326331986941;28.381300597339678;36.82652663973882;4.603315829967353;18.413263349534198;2.784279947645254;0.34803499345565675;0.8008457420096168;22.250659686535997;2.7813324608169996;2.8792281056916003;36.82652663973883;18.41326331986941;28.381300597339678;36.82652663973882;4.603315829967353;18.413263349534198;2.784279947645254;0.34803499345565675;0.8008457420096168;22.250659686535997;2.7813324608169996;2.8792281056916003;36.82652663973883;18.41326331986941;28.381300597339678;36.82652663973882;4.603315829967353;18.413263349534198;2.784279947645254;0.34803499345565675;0.8008457420096168;22.250659686535997;2.7813324608169996;2.8792281056916003;36.82652663973883;18.41326331986941;28.381300597339678;36.82652663973882;4.603315829967353;18.413263349534198;2.784279947645254;0.34803499345565675;0.8008457420096168;22.250659686535997;2.7813324608169996;2.8792281056916003;47.548875021634686;25.0;7.0;25.0;25.0;0.147994517982472;0.061546760305296974;4.0;3.0;0.0;1.0;1.5606601717798214;0.3535533905932738;0.0;0.0;1.5606601717798214;0.3535533905932738;0.0;0.0;0.75;0.7803300858899107;0.7071067811865476;0.75;0.7803300858899107;0.7071067811865476;6.621320343559642;3.5606601717798214;3.664213562373095;1.2803300858899107;0.7071067811865476;0.5303300858899107;0.0;0.0;0.8276650429449552;0.5086657388256888;6.621320343559642;3.5606601717798214;3.664213562373095;1.2803300858899107;0.7071067811865476;0.5303300858899107;0.0;0.0;0.8276650429449552;0.5086657388256888;11.0;9.510615269336444;12.87645023407287;24.990531682447198;23.529411764705884;23.84;15.186990419161678;29.737606813317583;0.4230769230769231;0.36579289497447864;0.4952480859258796;0.9611742954787383;0.904977375565611;0.916923076923077;0.584115016121603;1.1437541082045224;36.82652663973883;18.41326331986941;28.381300597339678;36.82652663973882;4.603315829967353;18.413263349534198;2.784279947645254;0.34803499345565675;0.8008457420096168;22.250659686535997;2.7813324608169996;2.8792281056916003;4.0;3.0;0.0;1.0;9.124722222222221;4.073680555555556;0.0;0.5515972222222223;2.2943055555555554;2.2418055555555556;56.0;4.0;0.5;0.0;0.125;3.5;0.4375;3.5;0.4375;9.217640687119285;1.1522050858899107;3.5606601717798214;0.4450825214724777;9.217640687119285;1.1522050858899107;3.5606601717798214;0.4450825214724777;0.3535533905932735;0.04419417382415919;0.3535533905932735;0.04419417382415919;0.4230769230769231;0.7;0.4230769230769231;0.4230769230769231;0.7;-3.5;-0.4375;0.7142857142857143;0.00028571428571433355;7.0;0.8904916402194913;1.322995967059358;2.266431544481697;3.006628179013871;3.006628179013871;3.006628179013871;23.152782645706775;34.39789514354331;58.92722015652412;78.17233265436064;78.17233265436064;78.17233265436064;0.1894485821789581;0.2814621708588937;0.4821743667373347;0.6396482795875358;0.6396482795875358;0.6396482795875358;0.19175693730143042;0.28489167471905225;0.48804946834317076;0.6474421377720837;0.6474421377720837;0.6474421377720837;3.8099480779216;3.3774437510817337;2.434008173659395;1.6938115391272208;1.6938115391272208;1.6938115391272208;6.654519640635535;11.849329110309174;16.185850633889352;16.931968841497785;16.931968841497785;16.931968841497785;31.72521615294554;24.13720727697972;21.001340785403762;19.448662496614734;19.448662496614734;19.448662496614734;8.0;1.0;0.0;-2.634542200549686;123.58000000000004;53.293845828605804;40.53659204461451;11.83581209232279;5.41499046939678;46.95741366754052;5.41499046939678;46.95741366754052;5.41499046939678;0.0;19.26246486877803;0.0;27.694948798762496;0.5515972222222223;0.0;4.073680555555556;9.124722222222221;1.8973665961010278;14.44048295092203;1.8050603688652538;14.44048295092203;1.8050603688652538;9.0;5.0;4.0;3.0;0.0;0.0;0.0;0.0;0.0;36.0;2.0794415416798357;2.302585092994046;1.791759469228055;1.6094379124341003;1.3862943611198906;0.0;0.0;0.0;0.0;0.0;3.6109179126442243;25.362274;18.057726;2.0;0.2857142857142857;3.2227000000000023;38.98;3.0;0.666666666666667;0.375;0.24000000000000005;0.0;0.0;0.0;0.0;0.0;0.0;0.42857142857142855;0.07407407407407411;0.075;0.06000000000000001;0.0;0.0;0.0;0.0;0.0;0.0;0.6376455026455027;5.0;3.0;0.6666666666666666;0.4;146.92434073860016;3.807354922057604;7.0;3.4965075614664802;4.110873864173311;4.9344739331306915;5.579729825986222;6.408528791059498;7.065613363597717;7.894690850425624;8.556990661290303;9.385721231090805;72.43313008222066;2.70805020110221;3.9318256327243257;5.303304908059076;6.736966958001855;8.201111644442758;34.881259344330225;114.14085057599999;4.3900327144615385;71.0;5.0;32.0;30.0;4.8125;1.875