boiling_point;SMILES;IUPAC_name;InChIKey;SpAbs_A;SpMax_A;SpDiam_A;SpAD_A;SpMAD_A;LogEE_A;VE1_A;VE2_A;VE3_A;VR1_A;VR2_A;VR3_A;nAtom;nHeavyAtom;nH;nC;ATS0dv;ATS1dv;ATS2dv;ATS3dv;ATS4dv;ATS5dv;ATS6dv;ATS7dv;ATS8dv;ATS0d;ATS1d;ATS2d;ATS3d;ATS4d;ATS5d;ATS6d;ATS7d;ATS8d;ATS0s;ATS1s;ATS2s;ATS3s;ATS4s;ATS5s;ATS6s;ATS7s;ATS8s;ATS0Z;ATS1Z;ATS2Z;ATS3Z;ATS4Z;ATS5Z;ATS6Z;ATS7Z;ATS8Z;ATS0m;ATS1m;ATS2m;ATS3m;ATS4m;ATS5m;ATS6m;ATS7m;ATS8m;ATS0v;ATS1v;ATS2v;ATS3v;ATS4v;ATS5v;ATS6v;ATS7v;ATS8v;ATS0se;ATS1se;ATS2se;ATS3se;ATS4se;ATS5se;ATS6se;ATS7se;ATS8se;ATS0pe;ATS1pe;ATS2pe;ATS3pe;ATS4pe;ATS5pe;ATS6pe;ATS7pe;ATS8pe;ATS0are;ATS1are;ATS2are;ATS3are;ATS4are;ATS5are;ATS6are;ATS7are;ATS8are;ATS0p;ATS1p;ATS2p;ATS3p;ATS4p;ATS5p;ATS6p;ATS7p;ATS8p;ATS0i;ATS1i;ATS2i;ATS3i;ATS4i;ATS5i;ATS6i;ATS7i;ATS8i;AATS0dv;AATS1dv;AATS2dv;AATS3dv;AATS0d;AATS1d;AATS2d;AATS3d;AATS0s;AATS1s;AATS2s;AATS3s;AATS0Z;AATS1Z;AATS2Z;AATS3Z;AATS0m;AATS1m;AATS2m;AATS3m;AATS0v;AATS1v;AATS2v;AATS3v;AATS0se;AATS1se;AATS2se;AATS3se;AATS0pe;AATS1pe;AATS2pe;AATS3pe;AATS0are;AATS1are;AATS2are;AATS3are;AATS0p;AATS1p;AATS2p;AATS3p;AATS0i;AATS1i;AATS2i;AATS3i;ATSC0c;ATSC1c;ATSC2c;ATSC3c;ATSC4c;ATSC5c;ATSC6c;ATSC7c;ATSC8c;ATSC0dv;ATSC1dv;ATSC2dv;ATSC3dv;ATSC4dv;ATSC5dv;ATSC6dv;ATSC7dv;ATSC8dv;ATSC0d;ATSC1d;ATSC2d;ATSC3d;ATSC4d;ATSC5d;ATSC6d;ATSC7d;ATSC8d;ATSC0s;ATSC1s;ATSC2s;ATSC3s;ATSC4s;ATSC5s;ATSC6s;ATSC7s;ATSC8s;ATSC0Z;ATSC1Z;ATSC2Z;ATSC3Z;ATSC4Z;ATSC5Z;ATSC6Z;ATSC7Z;ATSC8Z;ATSC0m;ATSC1m;ATSC2m;ATSC3m;ATSC4m;ATSC5m;ATSC6m;ATSC7m;ATSC8m;ATSC0v;ATSC1v;ATSC2v;ATSC3v;ATSC4v;ATSC5v;ATSC6v;ATSC7v;ATSC8v;ATSC0se;ATSC1se;ATSC2se;ATSC3se;ATSC4se;ATSC5se;ATSC6se;ATSC7se;ATSC8se;ATSC0pe;ATSC1pe;ATSC2pe;ATSC3pe;ATSC4pe;ATSC5pe;ATSC6pe;ATSC7pe;ATSC8pe;ATSC0are;ATSC1are;ATSC2are;ATSC3are;ATSC4are;ATSC5are;ATSC6are;ATSC7are;ATSC8are;ATSC0p;ATSC1p;ATSC2p;ATSC3p;ATSC4p;ATSC5p;ATSC6p;ATSC7p;ATSC8p;ATSC0i;ATSC1i;ATSC2i;ATSC3i;ATSC4i;ATSC5i;ATSC6i;ATSC7i;ATSC8i;AATSC0c;AATSC1c;AATSC2c;AATSC3c;AATSC0dv;AATSC1dv;AATSC2dv;AATSC3dv;AATSC0d;AATSC1d;AATSC2d;AATSC3d;AATSC0s;AATSC1s;AATSC2s;AATSC3s;AATSC0Z;AATSC1Z;AATSC2Z;AATSC3Z;AATSC0m;AATSC1m;AATSC2m;AATSC3m;AATSC0v;AATSC1v;AATSC2v;AATSC3v;AATSC0se;AATSC1se;AATSC2se;AATSC3se;AATSC0pe;AATSC1pe;AATSC2pe;AATSC3pe;AATSC0are;AATSC1are;AATSC2are;AATSC3are;AATSC0p;AATSC1p;AATSC2p;AATSC3p;AATSC0i;AATSC1i;AATSC2i;AATSC3i;MATS1c;MATS2c;MATS3c;MATS1dv;MATS2dv;MATS3dv;MATS1s;MATS2s;MATS3s;MATS1Z;MATS2Z;MATS3Z;MATS1m;MATS2m;MATS3m;MATS1v;MATS2v;MATS3v;MATS1se;MATS2se;MATS3se;MATS1pe;MATS2pe;MATS3pe;MATS1are;MATS2are;MATS3are;MATS1p;MATS2p;MATS3p;MATS1i;MATS2i;MATS3i;GATS1c;GATS2c;GATS3c;GATS1dv;GATS2dv;GATS3dv;GATS1s;GATS2s;GATS3s;GATS1Z;GATS2Z;GATS3Z;GATS1m;GATS2m;GATS3m;GATS1v;GATS2v;GATS3v;GATS1se;GATS2se;GATS3se;GATS1pe;GATS2pe;GATS3pe;GATS1are;GATS2are;GATS3are;GATS1p;GATS2p;GATS3p;GATS1i;GATS2i;GATS3i;BCUTc-1h;BCUTc-1l;BCUTdv-1h;BCUTdv-1l;BCUTd-1h;BCUTd-1l;BCUTs-1h;BCUTs-1l;BCUTZ-1h;BCUTZ-1l;BCUTm-1h;BCUTm-1l;BCUTv-1h;BCUTv-1l;BCUTse-1h;BCUTse-1l;BCUTpe-1h;BCUTpe-1l;BCUTare-1h;BCUTare-1l;BCUTp-1h;BCUTp-1l;BCUTi-1h;BCUTi-1l;BalabanJ;SpAbs_DzZ;SpMax_DzZ;SpDiam_DzZ;SpAD_DzZ;SpMAD_DzZ;LogEE_DzZ;VE1_DzZ;VE2_DzZ;VE3_DzZ;VR1_DzZ;VR2_DzZ;VR3_DzZ;SpAbs_Dzm;SpMax_Dzm;SpDiam_Dzm;SpAD_Dzm;SpMAD_Dzm;LogEE_Dzm;VE1_Dzm;VE2_Dzm;VE3_Dzm;VR1_Dzm;VR2_Dzm;VR3_Dzm;SpAbs_Dzv;SpMax_Dzv;SpDiam_Dzv;SpAD_Dzv;SpMAD_Dzv;LogEE_Dzv;VE1_Dzv;VE2_Dzv;VE3_Dzv;VR1_Dzv;VR2_Dzv;VR3_Dzv;SpAbs_Dzse;SpMax_Dzse;SpDiam_Dzse;SpAD_Dzse;SpMAD_Dzse;LogEE_Dzse;VE1_Dzse;VE2_Dzse;VE3_Dzse;VR1_Dzse;VR2_Dzse;VR3_Dzse;SpAbs_Dzpe;SpMax_Dzpe;SpDiam_Dzpe;SpAD_Dzpe;SpMAD_Dzpe;LogEE_Dzpe;VE1_Dzpe;VE2_Dzpe;VE3_Dzpe;VR1_Dzpe;VR2_Dzpe;VR3_Dzpe;SpAbs_Dzare;SpMax_Dzare;SpDiam_Dzare;SpAD_Dzare;SpMAD_Dzare;LogEE_Dzare;VE1_Dzare;VE2_Dzare;VE3_Dzare;VR1_Dzare;VR2_Dzare;VR3_Dzare;SpAbs_Dzp;SpMax_Dzp;SpDiam_Dzp;SpAD_Dzp;SpMAD_Dzp;LogEE_Dzp;VE1_Dzp;VE2_Dzp;VE3_Dzp;VR1_Dzp;VR2_Dzp;VR3_Dzp;SpAbs_Dzi;SpMax_Dzi;SpDiam_Dzi;SpAD_Dzi;SpMAD_Dzi;LogEE_Dzi;VE1_Dzi;VE2_Dzi;VE3_Dzi;VR1_Dzi;VR2_Dzi;VR3_Dzi;BertzCT;nBonds;nBondsO;nBondsS;nBondsKS;RNCG;RPCG;C1SP3;C2SP3;C3SP3;C4SP3;Xc-3d;Xc-4d;Xc-5d;Xc-6d;Xc-3dv;Xc-4dv;Xc-5dv;Xc-6dv;Xpc-4d;Xpc-5d;Xpc-6d;Xpc-4dv;Xpc-5dv;Xpc-6dv;Xp-0d;Xp-1d;Xp-2d;Xp-3d;Xp-4d;Xp-5d;Xp-6d;Xp-7d;AXp-0d;AXp-1d;Xp-0dv;Xp-1dv;Xp-2dv;Xp-3dv;Xp-4dv;Xp-5dv;Xp-6dv;Xp-7dv;AXp-0dv;AXp-1dv;SZ;Sm;Sv;Sse;Spe;Sare;Sp;Si;MZ;Mm;Mv;Mse;Mpe;Mare;Mp;Mi;SpAbs_D;SpMax_D;SpDiam_D;SpAD_D;SpMAD_D;LogEE_D;VE1_D;VE2_D;VE3_D;VR1_D;VR2_D;VR3_D;NsCH3;NssCH2;NsssCH;NssssC;SsCH3;SssCH2;SsssCH;SssssC;MAXsCH3;MINsCH3;ECIndex;ETA_alpha;ETA_shape_p;ETA_shape_y;ETA_shape_x;ETA_beta;AETA_beta;ETA_beta_s;AETA_beta_s;ETA_eta;AETA_eta;ETA_eta_L;AETA_eta_L;ETA_eta_R;AETA_eta_R;ETA_eta_RL;AETA_eta_RL;ETA_eta_B;AETA_eta_B;ETA_eta_BR;AETA_eta_BR;ETA_epsilon_1;ETA_epsilon_2;ETA_epsilon_3;ETA_epsilon_4;ETA_epsilon_5;ETA_dBeta;AETA_dBeta;ETA_psi_1;ETA_dPsi_B;fragCpx;IC0;IC1;IC2;IC3;IC4;IC5;TIC0;TIC1;TIC2;TIC3;TIC4;TIC5;SIC0;SIC1;SIC2;SIC3;SIC4;SIC5;BIC0;BIC1;BIC2;BIC3;BIC4;BIC5;CIC0;CIC1;CIC2;CIC3;CIC4;CIC5;MIC0;MIC1;MIC2;MIC3;MIC4;MIC5;ZMIC0;ZMIC1;ZMIC2;ZMIC3;ZMIC4;ZMIC5;Kier1;Lipinski;GhoseFilter;FilterItLogS;VMcGowan;LabuteASA;PEOE_VSA6;PEOE_VSA7;SMR_VSA4;SMR_VSA5;SlogP_VSA4;SlogP_VSA5;EState_VSA3;EState_VSA4;EState_VSA5;EState_VSA7;EState_VSA8;VSA_EState4;VSA_EState5;VSA_EState7;VSA_EState8;MDEC-11;MID;AMID;MID_C;AMID_C;MPC2;MPC3;MPC4;MPC5;MPC6;MPC7;MPC8;MPC9;MPC10;TMPC10;piPC1;piPC2;piPC3;piPC4;piPC5;piPC6;piPC7;piPC8;piPC9;piPC10;TpiPC10;apol;bpol;nRot;RotRatio;SLogP;SMR;GGI1;GGI2;GGI3;GGI4;GGI5;GGI6;GGI7;GGI8;GGI9;GGI10;JGI1;JGI2;JGI3;JGI4;JGI5;JGI6;JGI7;JGI8;JGI9;JGI10;JGT10;Diameter;Radius;TopoShapeIndex;PetitjeanIndex;Vabc;VAdjMat;MWC01;MWC02;MWC03;MWC04;MWC05;MWC06;MWC07;MWC08;MWC09;MWC10;TMWC10;SRW02;SRW04;SRW06;SRW08;SRW10;TSRW10;MW;AMW;WPath;WPol;Zagreb1;Zagreb2;mZagreb1;mZagreb2
160.0;CCC(CC)C(CC)CC;3,4-diethylhexane;VBZCRMTUDYIWIH-UHFFFAOYSA-N;11.924777216368064;2.1700864866260345;4.340172973252068;11.924777216368064;1.1924777216368063;3.1253852221358676;2.832388763708456;0.2832388763708456;1.041120441730861;31.185773901220642;3.118577390122064;3.4399620261274544;32.0;10.0;22.0;10.0;38.0;41.0;44.0;36.0;18.0;4.0;0.0;0.0;0.0;60.0;75.0;130.0;157.0;150.0;132.0;90.0;36.0;0.0;50.55555555555556;60.44444444444444;92.49999999999999;117.33333333333331;142.0;160.0;114.0;36.0;0.0;382.0;456.0;580.0;681.0;700.0;508.0;210.0;36.0;0.0;1464.9946180000002;1564.733025;1870.5392259999999;2200.554732;2100.659578;1259.4603879999997;357.63033599999994;36.578304;0.0;4919.011394973762;6335.857675895377;8633.553884985815;10238.484576551326;11071.817912826313;9276.726368672662;4805.205925333844;1119.0147995134894;0.0;223.21136800000002;224.452548;424.900072;568.430256;633.639016;749.639056;614.241792;241.86470400000002;0.0;171.505;181.9425;333.205;439.71;492.265;569.41;454.0799999999999;174.24;0.0;168.98000000000002;177.25;326.94;432.71999999999997;484.02;562.6800000000001;451.44000000000005;174.24;0.0;37.670483906678;49.59807482;72.863313017584;88.226621020017;98.24246545577202;92.179775172148;56.069515160034;16.006064574564;0.0;5336.131905433478;4509.8452544938;9432.792615526585;13136.22650754462;14408.010298649775;18085.267810691752;15879.506178710035;6657.0354728729635;0.0;1.1875;1.3225806451612903;0.7333333333333333;0.4444444444444444;1.875;2.4193548387096775;2.1666666666666665;1.9382716049382716;1.5798611111111112;1.949820788530466;1.5416666666666665;1.4485596707818928;11.9375;14.709677419354838;9.666666666666666;8.407407407407407;45.781081812500005;50.47525887096774;31.175653766666663;27.16734237037037;153.71910609293008;204.3825056740444;143.89256474976358;126.40104415495463;6.975355250000001;7.240404774193548;7.081667866666667;7.017657481481481;5.35953125;5.8691129032258065;5.553416666666666;5.428518518518518;5.280625000000001;5.717741935483871;5.449;5.3422222222222215;1.1772026220836875;1.5999378974193548;1.2143885502930667;1.0892175434570002;166.7541220447962;145.47887917721934;157.21321025877643;162.17563589561257;0.04520457612875758;-0.008059166404987241;-0.012435015069873524;0.01254489728863168;-0.013211644576951096;-0.02360536932443951;0.003044371582445832;0.01911963844079507;0.0;27.875;10.30859375;-1.140625;-12.62109375;-27.7734375;-9.078125;14.9765625;11.390625;0.0;10.0;5.9375;-1.25;-8.9375;-9.375;0.75;5.625;2.25;0.0;3.833333333333334;-1.4322916666666659;-1.145833333333333;1.1822916666666665;0.3229166666666676;-1.3124999999999998;-1.093750000000001;1.5624999999999987;0.0;171.875;-11.81640625;-25.390625;29.00390625;-92.7734375;-105.078125;32.2265625;87.890625;0.0;832.3288118749999;-57.222605816406116;-122.95766539062484;140.45548700390628;-449.2683927734373;-508.8555690781249;156.06165222656227;425.6226878906248;0.0;1547.7509673946556;-106.40787900838224;-228.6450292742102;261.1829757478483;-835.433760809615;-946.2386596117328;290.2033063864975;791.463562872267;0.0;0.1630474999999998;-0.011209515625000697;-0.024086562500000533;0.027514265624999652;-0.08800859375000045;-0.09968131249999965;0.03057140625000107;0.08337656250000067;0.0;0.8421874999999983;-0.057900390625000686;-0.1244140625000004;0.14211914062499933;-0.45458984374999967;-0.5148828124999987;0.15791015625000093;0.4306640625;0.0;0.6187499999999992;-0.042539062500000294;-0.09140625000000016;0.10441406249999974;-0.3339843749999999;-0.37828124999999946;0.1160156250000004;0.31640625;0.0;6.919166958336874;-0.475692728385663;-1.0221496642997683;1.1676094242193462;-3.734777619556838;-4.230127072255952;1.2973438046881691;3.5382103764222688;0.0;37.58502473308684;-2.5839704503997742;-5.5523331992060525;6.342472923708379;-20.28737130479123;-22.97811739363716;7.047192137453864;19.219614920328553;0.0;0.0014126430040236743;-0.0002599731098382981;-0.00020725025116455874;0.00015487527516829235;0.87109375;0.3325352822580645;-0.019010416666666665;-0.1558159722222222;0.3125;0.19153225806451613;-0.020833333333333332;-0.11033950617283951;0.11979166666666669;-0.046202956989247285;-0.019097222222222217;0.014596193415637858;5.37109375;-0.3811743951612903;-0.4231770833333333;0.3580729166666667;26.010275371093748;-1.845890510206649;-2.0492944231770807;1.7340183580729172;48.36721773108299;-3.4325122260768466;-3.8107504879035035;3.224481182072201;0.005095234374999993;-0.00036159727822582895;-0.00040144270833334224;0.0003396822916666624;0.026318359374999947;-0.0018677545362903447;-0.00207356770833334;0.0017545572916666584;0.019335937499999976;-0.0013722278225806546;-0.0015234375000000027;0.0012890624999999968;0.2162239674480273;-0.015344926722118162;-0.01703582773832947;0.014414931163201805;1.1745320229089637;-0.08335388549676691;-0.09253888665343421;0.07830213486059727;-0.18403312733493796;-0.14671098824985612;0.10963511285381825;0.3817445392738319;-0.021823617339312405;-0.17887394120577976;-0.3856942496493686;-0.1594202898550724;0.1218464841653247;-0.07096774193548387;-0.07878787878787878;0.06666666666666667;-0.07096774193548372;-0.0787878787878787;0.0666666666666667;-0.07096774193548365;-0.07878787878787868;0.0666666666666667;-0.07096774193548838;-0.07878787878788064;0.06666666666666592;-0.07096774193548486;-0.0787878787878792;0.06666666666666649;-0.07096774193548444;-0.07878787878787902;0.06666666666666658;-0.07096774193548432;-0.078787878787879;0.0666666666666666;-0.07096774193548536;-0.07878787878787939;0.0666666666666664;1.7162030176982177;1.2151812305717888;0.8471202753530949;1.2556053811659194;1.6866965620328849;1.7299451918286;1.9999999999999998;1.0108695652173911;0.5990338164251207;1.6;1.2775757575757576;1.002020202020202;1.6000000000000003;1.277575757575758;1.0020202020202025;1.6000000000000005;1.2775757575757578;1.002020202020202;1.6;1.2775757575757576;1.002020202020202;1.6000000000000003;1.2775757575757576;1.002020202020202;1.6000000000000003;1.2775757575757576;1.0020202020202023;1.6;1.2775757575757578;1.0020202020202023;1.5999999999999999;1.2775757575757574;1.0020202020202018;0.2220810674765004;-0.22360123194932735;3.1184328815659805;0.9871381495055086;3.1184328815659805;0.9871381495055086;2.0292767701746874;1.1708645559771849;6.225804141330642;5.780534798813623;12.236804141330627;11.7915347988136;20.805330417446168;20.360061074929142;2.9718041413306526;2.5265347988136155;2.775804141330645;2.330534798813615;2.7258041413306504;2.280534798813613;1.8958041413306546;1.4505347988136155;11.486104141330642;11.040834798813613;3.6982206147245567;52.09516015853659;26.04758007926829;35.63015577422413;52.09516015853658;5.209516015853658;26.047580079285954;3.1036971013813703;0.310369710138137;1.1325940142415531;32.56818091503826;3.2568180915038263;3.4833357661790543;52.09516015853659;26.04758007926829;35.63015577422413;52.09516015853658;5.209516015853658;26.047580079285954;3.1036971013813703;0.310369710138137;1.1325940142415531;32.56818091503826;3.2568180915038263;3.4833357661790543;52.09516015853659;26.04758007926829;35.63015577422413;52.09516015853658;5.209516015853658;26.047580079285954;3.1036971013813703;0.310369710138137;1.1325940142415531;32.56818091503826;3.2568180915038263;3.4833357661790543;52.09516015853659;26.04758007926829;35.63015577422413;52.09516015853658;5.209516015853658;26.047580079285954;3.1036971013813703;0.310369710138137;1.1325940142415531;32.56818091503826;3.2568180915038263;3.4833357661790543;52.09516015853659;26.04758007926829;35.63015577422413;52.09516015853658;5.209516015853658;26.047580079285954;3.1036971013813703;0.310369710138137;1.1325940142415531;32.56818091503826;3.2568180915038263;3.4833357661790543;52.09516015853659;26.04758007926829;35.63015577422413;52.09516015853658;5.209516015853658;26.047580079285954;3.1036971013813703;0.310369710138137;1.1325940142415531;32.56818091503826;3.2568180915038263;3.4833357661790543;52.09516015853659;26.04758007926829;35.63015577422413;52.09516015853658;5.209516015853658;26.047580079285954;3.1036971013813703;0.310369710138137;1.1325940142415531;32.56818091503826;3.2568180915038263;3.4833357661790543;52.09516015853659;26.04758007926829;35.63015577422413;52.09516015853658;5.209516015853658;26.047580079285954;3.1036971013813703;0.310369710138137;1.1325940142415531;32.56818091503826;3.2568180915038263;3.4833357661790543;48.438561897747256;31.0;9.0;31.0;31.0;0.11817993695633393;0.05541935117313005;4.0;4.0;2.0;0.0;0.3333333333333333;0.0;0.08333333333333333;0.0;0.3333333333333333;0.0;0.08333333333333333;0.0;1.1380711874576983;1.7475468957064282;1.747546895706428;1.1380711874576983;1.7475468957064282;1.747546895706428;7.983127663125442;4.794753619934976;3.1531524726271414;2.764176246627982;1.9106836025229592;0.6666666666666666;0.0;0.0;0.7983127663125442;0.5327504022149974;7.983127663125442;4.794753619934976;3.1531524726271414;2.764176246627982;1.9106836025229592;0.6666666666666666;0.0;0.0;0.7983127663125442;0.5327504022149974;13.666666666666668;11.846307551411208;15.96010584164462;30.766205389657685;28.98039215686275;29.360000000000003;18.784099401197608;36.568186105165935;0.42708333333333337;0.37019711098160024;0.49875330755139435;0.9614439184268027;0.9056372549019609;0.9175000000000001;0.5870031062874252;1.1427558157864355;52.09516015853659;26.04758007926829;35.63015577422413;52.09516015853658;5.209516015853658;26.047580079285954;3.1036971013813703;0.310369710138137;1.1325940142415531;32.56818091503826;3.2568180915038263;3.4833357661790543;4.0;4.0;2.0;0.0;9.247962962962962;5.455740740740741;1.9629629629629628;0.0;2.311990740740741;2.3119907407407405;70.0;5.0;0.4;0.2;0.0;4.5;0.45;4.5;0.45;12.359440368783282;1.2359440368783283;4.794753619934976;0.4794753619934976;12.359440368783282;1.2359440368783283;4.794753619934976;0.4794753619934976;0.11945994243811864;0.011945994243811865;0.11945994243811864;0.011945994243811865;0.425;0.7;0.425;0.425;0.7;-4.5;-0.45;0.7142857142857143;0.00028571428571433355;9.0;0.8960382325345574;1.3716407621868583;2.2806390622295662;2.2806390622295662;2.2806390622295662;2.2806390622295662;28.673223441105836;43.892504389979464;72.98044999134612;72.98044999134612;72.98044999134612;72.98044999134612;0.17920764650691148;0.27432815243737163;0.45612781244591327;0.45612781244591327;0.45612781244591327;0.45612781244591327;0.1808644987797396;0.2768644349661926;0.46034491153449475;0.46034491153449475;0.46034491153449475;0.46034491153449475;4.103961767465442;3.6283592378131417;2.7193609377704338;2.7193609377704338;2.7193609377704338;2.7193609377704338;6.673151904630568;12.385613888284354;13.301884174727402;13.301884174727402;13.301884174727402;13.301884174727402;39.639944988972836;29.17609676811088;31.8676687467548;31.8676687467548;31.8676687467548;31.8676687467548;10.0;1.0;0.0;-3.119502638111995;151.76000000000002;66.02373005739902;53.378235290466534;11.835812092322787;11.835812092322787;53.378235290466534;11.835812092322787;53.378235290466534;0.0;11.835812092322787;25.683286491704038;0.0;27.694948798762496;0.0;1.9629629629629628;5.455740740740741;9.247962962962962;1.29266081401913;18.497692926377514;1.8497692926377514;18.497692926377514;1.8497692926377514;10.0;12.0;10.0;4.0;0.0;0.0;0.0;0.0;0.0;55.0;2.302585092994046;2.3978952727983707;2.5649493574615367;2.3978952727983707;1.6094379124341003;0.0;0.0;0.0;0.0;0.0;4.02535169073515;31.369446;22.070553999999998;5.0;0.5555555555555556;3.858800000000003;48.14400000000003;2.0;1.333333333333334;0.75;0.32000000000000006;0.0;0.0;0.0;0.0;0.0;0.0;0.2222222222222222;0.13333333333333341;0.0625;0.03200000000000001;0.0;0.0;0.0;0.0;0.0;0.0;0.4500555555555556;5.0;3.0;0.6666666666666666;0.4;181.5163111863147;4.169925001442312;9.0;3.6635616461296463;4.418840607796598;5.187385805840755;5.958424693029782;6.732210706467206;7.506042178518122;8.280711075662847;9.055205875026193;9.830002463273651;79.63238505174479;2.9444389791664403;4.07753744390572;5.459585514144159;6.942156705699469;8.463581421967588;37.88730006488338;142.172150704;4.4428797095;125.0;12.0;38.0;41.0;5.222222222222222;2.7777777777777777