boiling_point;SMILES;IUPAC_name;InChIKey;SpAbs_A;SpMax_A;SpDiam_A;SpAD_A;SpMAD_A;LogEE_A;VE1_A;VE2_A;VE3_A;VR1_A;VR2_A;VR3_A;nAtom;nHeavyAtom;nH;nC;ATS0dv;ATS1dv;ATS2dv;ATS3dv;ATS4dv;ATS5dv;ATS6dv;ATS7dv;ATS8dv;ATS0d;ATS1d;ATS2d;ATS3d;ATS4d;ATS5d;ATS6d;ATS7d;ATS8d;ATS0s;ATS1s;ATS2s;ATS3s;ATS4s;ATS5s;ATS6s;ATS7s;ATS8s;ATS0Z;ATS1Z;ATS2Z;ATS3Z;ATS4Z;ATS5Z;ATS6Z;ATS7Z;ATS8Z;ATS0m;ATS1m;ATS2m;ATS3m;ATS4m;ATS5m;ATS6m;ATS7m;ATS8m;ATS0v;ATS1v;ATS2v;ATS3v;ATS4v;ATS5v;ATS6v;ATS7v;ATS8v;ATS0se;ATS1se;ATS2se;ATS3se;ATS4se;ATS5se;ATS6se;ATS7se;ATS8se;ATS0pe;ATS1pe;ATS2pe;ATS3pe;ATS4pe;ATS5pe;ATS6pe;ATS7pe;ATS8pe;ATS0are;ATS1are;ATS2are;ATS3are;ATS4are;ATS5are;ATS6are;ATS7are;ATS8are;ATS0p;ATS1p;ATS2p;ATS3p;ATS4p;ATS5p;ATS6p;ATS7p;ATS8p;ATS0i;ATS1i;ATS2i;ATS3i;ATS4i;ATS5i;ATS6i;ATS7i;ATS8i;AATS0dv;AATS1dv;AATS2dv;AATS3dv;AATS0d;AATS1d;AATS2d;AATS3d;AATS0s;AATS1s;AATS2s;AATS3s;AATS0Z;AATS1Z;AATS2Z;AATS3Z;AATS0m;AATS1m;AATS2m;AATS3m;AATS0v;AATS1v;AATS2v;AATS3v;AATS0se;AATS1se;AATS2se;AATS3se;AATS0pe;AATS1pe;AATS2pe;AATS3pe;AATS0are;AATS1are;AATS2are;AATS3are;AATS0p;AATS1p;AATS2p;AATS3p;AATS0i;AATS1i;AATS2i;AATS3i;ATSC0c;ATSC1c;ATSC2c;ATSC3c;ATSC4c;ATSC5c;ATSC6c;ATSC7c;ATSC8c;ATSC0dv;ATSC1dv;ATSC2dv;ATSC3dv;ATSC4dv;ATSC5dv;ATSC6dv;ATSC7dv;ATSC8dv;ATSC0d;ATSC1d;ATSC2d;ATSC3d;ATSC4d;ATSC5d;ATSC6d;ATSC7d;ATSC8d;ATSC0s;ATSC1s;ATSC2s;ATSC3s;ATSC4s;ATSC5s;ATSC6s;ATSC7s;ATSC8s;ATSC0Z;ATSC1Z;ATSC2Z;ATSC3Z;ATSC4Z;ATSC5Z;ATSC6Z;ATSC7Z;ATSC8Z;ATSC0m;ATSC1m;ATSC2m;ATSC3m;ATSC4m;ATSC5m;ATSC6m;ATSC7m;ATSC8m;ATSC0v;ATSC1v;ATSC2v;ATSC3v;ATSC4v;ATSC5v;ATSC6v;ATSC7v;ATSC8v;ATSC0se;ATSC1se;ATSC2se;ATSC3se;ATSC4se;ATSC5se;ATSC6se;ATSC7se;ATSC8se;ATSC0pe;ATSC1pe;ATSC2pe;ATSC3pe;ATSC4pe;ATSC5pe;ATSC6pe;ATSC7pe;ATSC8pe;ATSC0are;ATSC1are;ATSC2are;ATSC3are;ATSC4are;ATSC5are;ATSC6are;ATSC7are;ATSC8are;ATSC0p;ATSC1p;ATSC2p;ATSC3p;ATSC4p;ATSC5p;ATSC6p;ATSC7p;ATSC8p;ATSC0i;ATSC1i;ATSC2i;ATSC3i;ATSC4i;ATSC5i;ATSC6i;ATSC7i;ATSC8i;AATSC0c;AATSC1c;AATSC2c;AATSC3c;AATSC0dv;AATSC1dv;AATSC2dv;AATSC3dv;AATSC0d;AATSC1d;AATSC2d;AATSC3d;AATSC0s;AATSC1s;AATSC2s;AATSC3s;AATSC0Z;AATSC1Z;AATSC2Z;AATSC3Z;AATSC0m;AATSC1m;AATSC2m;AATSC3m;AATSC0v;AATSC1v;AATSC2v;AATSC3v;AATSC0se;AATSC1se;AATSC2se;AATSC3se;AATSC0pe;AATSC1pe;AATSC2pe;AATSC3pe;AATSC0are;AATSC1are;AATSC2are;AATSC3are;AATSC0p;AATSC1p;AATSC2p;AATSC3p;AATSC0i;AATSC1i;AATSC2i;AATSC3i;MATS1c;MATS2c;MATS3c;MATS1dv;MATS2dv;MATS3dv;MATS1s;MATS2s;MATS3s;MATS1Z;MATS2Z;MATS3Z;MATS1m;MATS2m;MATS3m;MATS1v;MATS2v;MATS3v;MATS1se;MATS2se;MATS3se;MATS1pe;MATS2pe;MATS3pe;MATS1are;MATS2are;MATS3are;MATS1p;MATS2p;MATS3p;MATS1i;MATS2i;MATS3i;GATS1c;GATS2c;GATS3c;GATS1dv;GATS2dv;GATS3dv;GATS1s;GATS2s;GATS3s;GATS1Z;GATS2Z;GATS3Z;GATS1m;GATS2m;GATS3m;GATS1v;GATS2v;GATS3v;GATS1se;GATS2se;GATS3se;GATS1pe;GATS2pe;GATS3pe;GATS1are;GATS2are;GATS3are;GATS1p;GATS2p;GATS3p;GATS1i;GATS2i;GATS3i;BCUTc-1h;BCUTc-1l;BCUTdv-1h;BCUTdv-1l;BCUTd-1h;BCUTd-1l;BCUTs-1h;BCUTs-1l;BCUTZ-1h;BCUTZ-1l;BCUTm-1h;BCUTm-1l;BCUTv-1h;BCUTv-1l;BCUTse-1h;BCUTse-1l;BCUTpe-1h;BCUTpe-1l;BCUTare-1h;BCUTare-1l;BCUTp-1h;BCUTp-1l;BCUTi-1h;BCUTi-1l;BalabanJ;SpAbs_DzZ;SpMax_DzZ;SpDiam_DzZ;SpAD_DzZ;SpMAD_DzZ;LogEE_DzZ;VE1_DzZ;VE2_DzZ;VE3_DzZ;VR1_DzZ;VR2_DzZ;VR3_DzZ;SpAbs_Dzm;SpMax_Dzm;SpDiam_Dzm;SpAD_Dzm;SpMAD_Dzm;LogEE_Dzm;VE1_Dzm;VE2_Dzm;VE3_Dzm;VR1_Dzm;VR2_Dzm;VR3_Dzm;SpAbs_Dzv;SpMax_Dzv;SpDiam_Dzv;SpAD_Dzv;SpMAD_Dzv;LogEE_Dzv;VE1_Dzv;VE2_Dzv;VE3_Dzv;VR1_Dzv;VR2_Dzv;VR3_Dzv;SpAbs_Dzse;SpMax_Dzse;SpDiam_Dzse;SpAD_Dzse;SpMAD_Dzse;LogEE_Dzse;VE1_Dzse;VE2_Dzse;VE3_Dzse;VR1_Dzse;VR2_Dzse;VR3_Dzse;SpAbs_Dzpe;SpMax_Dzpe;SpDiam_Dzpe;SpAD_Dzpe;SpMAD_Dzpe;LogEE_Dzpe;VE1_Dzpe;VE2_Dzpe;VE3_Dzpe;VR1_Dzpe;VR2_Dzpe;VR3_Dzpe;SpAbs_Dzare;SpMax_Dzare;SpDiam_Dzare;SpAD_Dzare;SpMAD_Dzare;LogEE_Dzare;VE1_Dzare;VE2_Dzare;VE3_Dzare;VR1_Dzare;VR2_Dzare;VR3_Dzare;SpAbs_Dzp;SpMax_Dzp;SpDiam_Dzp;SpAD_Dzp;SpMAD_Dzp;LogEE_Dzp;VE1_Dzp;VE2_Dzp;VE3_Dzp;VR1_Dzp;VR2_Dzp;VR3_Dzp;SpAbs_Dzi;SpMax_Dzi;SpDiam_Dzi;SpAD_Dzi;SpMAD_Dzi;LogEE_Dzi;VE1_Dzi;VE2_Dzi;VE3_Dzi;VR1_Dzi;VR2_Dzi;VR3_Dzi;BertzCT;nBonds;nBondsO;nBondsS;nBondsKS;RNCG;RPCG;C1SP3;C2SP3;C3SP3;C4SP3;Xc-3d;Xc-4d;Xc-5d;Xc-6d;Xc-3dv;Xc-4dv;Xc-5dv;Xc-6dv;Xpc-4d;Xpc-5d;Xpc-6d;Xpc-4dv;Xpc-5dv;Xpc-6dv;Xp-0d;Xp-1d;Xp-2d;Xp-3d;Xp-4d;Xp-5d;Xp-6d;Xp-7d;AXp-0d;AXp-1d;Xp-0dv;Xp-1dv;Xp-2dv;Xp-3dv;Xp-4dv;Xp-5dv;Xp-6dv;Xp-7dv;AXp-0dv;AXp-1dv;SZ;Sm;Sv;Sse;Spe;Sare;Sp;Si;MZ;Mm;Mv;Mse;Mpe;Mare;Mp;Mi;SpAbs_D;SpMax_D;SpDiam_D;SpAD_D;SpMAD_D;LogEE_D;VE1_D;VE2_D;VE3_D;VR1_D;VR2_D;VR3_D;NsCH3;NssCH2;NsssCH;NssssC;SsCH3;SssCH2;SsssCH;SssssC;MAXsCH3;MINsCH3;ECIndex;ETA_alpha;ETA_shape_p;ETA_shape_y;ETA_shape_x;ETA_beta;AETA_beta;ETA_beta_s;AETA_beta_s;ETA_eta;AETA_eta;ETA_eta_L;AETA_eta_L;ETA_eta_R;AETA_eta_R;ETA_eta_RL;AETA_eta_RL;ETA_eta_B;AETA_eta_B;ETA_eta_BR;AETA_eta_BR;ETA_epsilon_1;ETA_epsilon_2;ETA_epsilon_3;ETA_epsilon_4;ETA_epsilon_5;ETA_dBeta;AETA_dBeta;ETA_psi_1;ETA_dPsi_B;fragCpx;IC0;IC1;IC2;IC3;IC4;IC5;TIC0;TIC1;TIC2;TIC3;TIC4;TIC5;SIC0;SIC1;SIC2;SIC3;SIC4;SIC5;BIC0;BIC1;BIC2;BIC3;BIC4;BIC5;CIC0;CIC1;CIC2;CIC3;CIC4;CIC5;MIC0;MIC1;MIC2;MIC3;MIC4;MIC5;ZMIC0;ZMIC1;ZMIC2;ZMIC3;ZMIC4;ZMIC5;Kier1;Lipinski;GhoseFilter;FilterItLogS;VMcGowan;LabuteASA;PEOE_VSA6;PEOE_VSA7;SMR_VSA4;SMR_VSA5;SlogP_VSA4;SlogP_VSA5;EState_VSA3;EState_VSA4;EState_VSA5;EState_VSA7;EState_VSA8;VSA_EState4;VSA_EState5;VSA_EState7;VSA_EState8;MDEC-11;MID;AMID;MID_C;AMID_C;MPC2;MPC3;MPC4;MPC5;MPC6;MPC7;MPC8;MPC9;MPC10;TMPC10;piPC1;piPC2;piPC3;piPC4;piPC5;piPC6;piPC7;piPC8;piPC9;piPC10;TpiPC10;apol;bpol;nRot;RotRatio;SLogP;SMR;GGI1;GGI2;GGI3;GGI4;GGI5;GGI6;GGI7;GGI8;GGI9;GGI10;JGI1;JGI2;JGI3;JGI4;JGI5;JGI6;JGI7;JGI8;JGI9;JGI10;JGT10;Diameter;Radius;TopoShapeIndex;PetitjeanIndex;Vabc;VAdjMat;MWC01;MWC02;MWC03;MWC04;MWC05;MWC06;MWC07;MWC08;MWC09;MWC10;TMWC10;SRW02;SRW04;SRW06;SRW08;SRW10;TSRW10;MW;AMW;WPath;WPol;Zagreb1;Zagreb2;mZagreb1;mZagreb2
154.0;CCCCCCC(C)(C)C;2,2-dimethyloctane;GPBUTTSWJNPYJL-UHFFFAOYSA-N;10.83478308621913;2.119165782887463;4.238331565774926;10.83478308621913;1.0834783086219129;3.1329781460815247;2.714795811130899;0.2714795811130899;0.9987167428710655;48.121660266943856;4.812166026694386;3.873732393149344;32.0;10.0;22.0;10.0;40.0;38.0;31.0;24.0;20.0;16.0;10.0;3.0;0.0;62.0;70.0;132.0;128.0;139.0;96.0;78.0;63.0;36.0;50.8125;60.375;95.875;130.875;127.625;88.375;76.0;65.25;54.0;382.0;456.0;605.0;586.0;459.0;368.0;304.0;240.0;126.0;1464.9946180000002;1564.7330249999998;1991.6052349999998;1661.7708309999994;1292.8093979999999;1068.6189409999997;871.8622119999999;675.1054829999998;236.21673599999997;4919.011394973762;6335.857675895377;8858.68129842504;9614.764740992741;7941.475800760143;6095.4163561699015;5088.618011214776;4081.8196662596506;2624.7664944260805;223.21136800000002;224.45254800000004;424.923788;570.706684;682.035288;437.75185999999997;374.86695999999995;311.98206;249.049728;171.505;181.9425;333.3275;443.7175;512.2349999999999;333.2525;284.95000000000005;236.6475;188.1;168.98000000000002;177.25;327.03000000000003;436.23;507.41999999999996;329.13;281.52;233.91;186.12;37.670483906678;49.59807482;73.869737302433;87.20808802667801;78.15034230548702;57.124265015168;48.10273615577199;39.08120729637599;28.046829867282;5336.131905433478;4509.8452544938;9438.259528215034;12918.12131823428;17004.254645454686;10532.522885761367;9053.56773072277;7574.612575684176;6084.723595268682;1.25;1.2258064516129032;0.5166666666666667;0.2962962962962963;1.9375;2.2580645161290325;2.2;1.5802469135802468;1.587890625;1.9475806451612903;1.5979166666666667;1.6157407407407407;11.9375;14.709677419354838;10.083333333333334;7.234567901234568;45.781081812500005;50.475258870967735;33.19342058333333;20.51568927160493;153.71910609293008;204.3825056740444;147.64468830708398;118.70079927151532;6.975355250000001;7.240404774193549;7.0820631333333335;7.045761530864198;5.35953125;5.8691129032258065;5.555458333333333;5.4779938271604935;5.280625000000001;5.717741935483871;5.450500000000001;5.385555555555555;1.1772026220836875;1.5999378974193548;1.2311622883738833;1.0766430620577532;166.7541220447962;145.47887917721934;157.30432547025057;159.48297923746026;0.04432644951709458;-0.007730898197397994;0.0035292879928985324;-0.036154450309584224;0.015313589178982442;-1.6911038640827938e-05;0.0006041105943516232;0.002783482462808772;-0.01515793927466184;29.875;7.30859375;-17.515625;-11.12109375;7.44921875;-1.19140625;-3.2890625;-6.38671875;1.265625;12.0;0.9375;-6.75;-0.4375;1.1875;-0.5625;-2.625;-1.6875;2.25;3.888671875;-1.94097900390625;2.216552734375;-3.73773193359375;1.24285888671875;0.02386474609375;-0.1187744140625;1.36358642578125;-2.195068359375;171.875;-11.81640625;-0.390625;-142.87109375;63.57421875;-2.44140625;-2.5390625;-2.63671875;-52.734375;832.3288118749999;-57.2226058164061;-1.8916563906249166;-691.8733248710935;307.86707757421857;-11.82285244140628;-12.295766539062498;-12.76868063671877;-255.37361273437497;1547.7509673946556;-106.40787900838227;-3.5176158349875664;-1286.5679916468075;572.491977144273;-21.985098968674116;-22.864502927421114;-23.743906886168077;-474.87813772336034;0.1630474999999998;-0.011209515625000695;-0.0003705625000005597;-0.13553323437500037;0.06030904687500061;-0.0023160156249998802;-0.002408656249999865;-0.002501296874999854;-0.050025937499999784;0.8421874999999983;-0.057900390625000714;-0.001914062500000674;-0.7000683593749992;0.3115136718750001;-0.011962890624999858;-0.012441406249999828;-0.012919921874999796;-0.25839843749999925;0.6187499999999992;-0.042539062500000294;-0.001406250000000303;-0.5143359374999996;0.22886718750000007;-0.008789062499999927;-0.009140624999999923;-0.009492187499999923;-0.18984374999999967;6.919166958336874;-0.4756927283856633;-0.015725379450767907;-5.751557534117529;2.559305505612109;-0.0982836215672844;-0.10221496642997585;-0.10614631129266733;-2.1229262258533588;37.58502473308684;-2.5839704503997734;-0.08542051075705892;-31.24255180937847;13.902188125704328;-0.5338781922313385;-0.5552333199205917;-0.5765884476098448;-11.531768952197083;0.0013852015474092056;-0.0002493838128192901;5.8821466548308875e-05;-0.00044635123838992867;0.93359375;0.2357610887096774;-0.29192708333333334;-0.1372974537037037;0.375;0.03024193548387097;-0.1125;-0.005401234567901234;0.12152099609375;-0.06261222593245967;0.036942545572916666;-0.046144838686342594;5.37109375;-0.3811743951612903;-0.006510416666666667;-1.7638406635802468;26.010275371093748;-1.8458905102066485;-0.03152760651041528;-8.541645986062882;48.36721773108299;-3.4325122260768475;-0.058626930583126104;-15.883555452429722;0.005095234374999993;-0.0003615972782258289;-6.176041666675995e-06;-0.00167324980709877;0.026318359374999947;-0.0018677545362903456;-3.19010416666779e-05;-0.0086428192515432;0.019335937499999976;-0.0013722278225806546;-2.3437500000005052e-05;-0.006349826388888884;0.2162239674480273;-0.01534492672211817;-0.00026208965751279846;-0.07100688313725344;1.1745320229089637;-0.08335388549676688;-0.0014236751792843154;-0.3857105161651663;-0.1800343157901621;0.04246419350189499;-0.32222837118883974;0.25253070589823184;-0.31269177126917713;-0.1470633813730048;-0.5152379255034752;0.30400133936045537;-0.3797272913295013;-0.07096774193548387;-0.0012121212121212121;-0.32839506172839505;-0.07096774193548369;-0.0012121212121211588;-0.32839506172839494;-0.07096774193548366;-0.001212121212121113;-0.32839506172839505;-0.07096774193548837;-0.0012121212121230444;-0.3283950617283964;-0.07096774193548488;-0.0012121212121216412;-0.3283950617283954;-0.07096774193548444;-0.001212121212121475;-0.3283950617283952;-0.07096774193548436;-0.0012121212121213884;-0.32839506172839517;-0.07096774193548533;-0.0012121212121218277;-0.3283950617283954;1.7098057367908;1.0553440653948183;1.4610212808758762;1.405857740585774;2.2655509065550903;1.0376569037656904;2.1215469613259668;0.5646743679892852;1.633126848596462;1.6;1.2024242424242426;1.4473625140291808;1.6000000000000003;1.2024242424242426;1.4473625140291813;1.6000000000000005;1.2024242424242426;1.447362514029181;1.6;1.2024242424242426;1.447362514029181;1.6;1.2024242424242424;1.4473625140291806;1.6000000000000003;1.2024242424242424;1.4473625140291808;1.6;1.2024242424242426;1.4473625140291808;1.5999999999999999;1.2024242424242422;1.4473625140291806;0.21802022285627315;-0.2362006093099298;4.017029724120938;0.9871399013537565;4.017029724120938;0.9871399013537565;2.0490367294503202;1.172544616496917;6.227802725877917;5.7775993930433875;12.238802725877894;11.788599393043393;20.80732900199343;20.357125669158915;2.973802725877909;2.523599393043398;2.7778027258779123;2.3275993930433967;2.7278027258779125;2.277599393043397;1.897802725877912;1.4475993930433997;11.488102725877908;11.037899393043396;3.0437584089734577;60.527238432033535;30.263619216016778;47.78340863894624;60.527238432033556;6.052723843203355;30.263619216017037;3.1144644698069763;0.3114464469806976;1.1360572176543688;31.207254162249196;3.1207254162249196;3.4406505729905863;60.527238432033535;30.263619216016778;47.78340863894624;60.527238432033556;6.052723843203355;30.263619216017037;3.1144644698069763;0.3114464469806976;1.1360572176543688;31.207254162249196;3.1207254162249196;3.4406505729905863;60.527238432033535;30.263619216016778;47.78340863894624;60.527238432033556;6.052723843203355;30.263619216017037;3.1144644698069763;0.3114464469806976;1.1360572176543688;31.207254162249196;3.1207254162249196;3.4406505729905863;60.527238432033535;30.263619216016778;47.78340863894624;60.527238432033556;6.052723843203355;30.263619216017037;3.1144644698069763;0.3114464469806976;1.1360572176543688;31.207254162249196;3.1207254162249196;3.4406505729905863;60.527238432033535;30.263619216016778;47.78340863894624;60.527238432033556;6.052723843203355;30.263619216017037;3.1144644698069763;0.3114464469806976;1.1360572176543688;31.207254162249196;3.1207254162249196;3.4406505729905863;60.527238432033535;30.263619216016778;47.78340863894624;60.527238432033556;6.052723843203355;30.263619216017037;3.1144644698069763;0.3114464469806976;1.1360572176543688;31.207254162249196;3.1207254162249196;3.4406505729905863;60.527238432033535;30.263619216016778;47.78340863894624;60.527238432033556;6.052723843203355;30.263619216017037;3.1144644698069763;0.3114464469806976;1.1360572176543688;31.207254162249196;3.1207254162249196;3.4406505729905863;60.527238432033535;30.263619216016778;47.78340863894624;60.527238432033556;6.052723843203355;30.263619216017037;3.1144644698069763;0.3114464469806976;1.1360572176543688;31.207254162249196;3.1207254162249196;3.4406505729905863;66.59772060569361;31.0;9.0;31.0;31.0;0.1192241454684546;0.049582017052353225;4.0;5.0;0.0;1.0;1.5606601717798214;0.3535533905932738;0.0;0.0;1.5606601717798214;0.3535533905932738;0.0;0.0;0.75;0.7803300858899107;0.5517766952966369;0.75;0.7803300858899107;0.5517766952966369;8.035533905932738;4.560660171779821;4.371320343559643;1.7803300858899107;1.0821067811865475;0.6401650429449554;0.3535533905932738;0.26516504294495535;0.8035533905932738;0.5067400190866468;8.035533905932738;4.560660171779821;4.371320343559643;1.7803300858899107;1.0821067811865475;0.6401650429449554;0.3535533905932738;0.26516504294495535;0.8035533905932738;0.5067400190866468;13.666666666666668;11.846307551411208;15.96010584164462;30.766205389657685;28.98039215686275;29.360000000000003;18.784099401197608;36.568186105165935;0.42708333333333337;0.37019711098160024;0.49875330755139435;0.9614439184268027;0.9056372549019609;0.9175000000000001;0.5870031062874252;1.1427558157864355;60.527238432033535;30.263619216016778;47.78340863894624;60.527238432033556;6.052723843203355;30.263619216017037;3.1144644698069763;0.3114464469806976;1.1360572176543688;31.207254162249196;3.1207254162249196;3.4406505729905863;4.0;5.0;0.0;1.0;9.216196145124716;6.984457199546485;0.0;0.5493466553287982;2.3183985260770976;2.261000566893424;100.0;5.0;0.4;0.0;0.1;4.5;0.45;4.5;0.45;12.217993318963503;1.2217993318963503;4.560660171779821;0.4560660171779821;12.217993318963503;1.2217993318963503;4.560660171779821;0.4560660171779821;0.35355339059327395;0.0353553390593274;0.35355339059327395;0.0353553390593274;0.425;0.7;0.425;0.425;0.7;-4.5;-0.45;0.7142857142857143;0.00028571428571433355;9.0;0.8960382325345574;1.3213394973607078;2.320356063692049;3.201597655573916;3.498778124459133;3.498778124459133;28.673223441105836;42.28286391554265;74.25139403814556;102.45112497836531;111.96089998269225;111.96089998269225;0.17920764650691148;0.2642678994721416;0.4640712127384098;0.6403195311147832;0.6997556248918266;0.6997556248918266;0.1808644987797396;0.2667111706071098;0.4683617520014768;0.6462395623809873;0.7062251685755085;0.7062251685755085;4.103961767465442;3.6786605026392922;2.679643936307951;1.798402344426084;1.501221875540867;1.501221875540867;6.673151904630568;11.781445396457462;16.261229713057542;18.784459587246484;19.084017499882783;19.084017499882783;39.639944988972836;30.66705882332637;26.887395010297887;21.63514960349307;20.418232416804372;20.418232416804372;10.0;1.0;0.0;-3.4758426381119945;151.76000000000002;66.02373005739902;53.37823529046652;11.83581209232279;5.41499046939678;59.79905691339253;5.41499046939678;59.79905691339253;5.41499046939678;0.0;32.10410811463005;0.0;27.694948798762496;0.5493466553287982;0.0;6.984457199546485;9.216196145124716;1.6035674514745466;18.434106124235104;1.8434106124235103;18.434106124235104;1.8434106124235103;11.0;7.0;6.0;5.0;4.0;3.0;0.0;0.0;0.0;55.0;2.302585092994046;2.4849066497880004;2.0794415416798357;1.9459101490553132;1.791759469228055;1.6094379124341003;1.3862943611198906;0.0;0.0;0.0;4.02535169073515;31.369446;22.070553999999998;4.0;0.4444444444444444;4.002900000000003;48.21400000000003;3.0;0.666666666666667;0.375;0.24000000000000005;0.16666666666666663;0.12244897959183673;0.0;0.0;0.0;0.0;0.3333333333333333;0.06060606060606063;0.05357142857142856;0.04000000000000001;0.03333333333333333;0.030612244897959183;0.0;0.0;0.0;0.0;0.5514564007421151;7.0;4.0;0.75;0.42857142857142855;181.5163111863147;4.169925001442312;9.0;3.713572066704308;4.343805421853684;5.14166355650266;5.796057750765372;6.6052979209482015;7.270312886079025;8.084254106307318;8.755107121633896;9.571435532348406;78.28150636314287;2.9444389791664403;4.143134726391533;5.484796933490655;6.890609120147166;8.330622620332868;37.793602379528664;142.172150704;4.4428797095;146.0;7.0;40.0;38.0;5.3125;2.375