boiling_point;SMILES;IUPAC_name;InChIKey;SpAbs_A;SpMax_A;SpDiam_A;SpAD_A;SpMAD_A;LogEE_A;VE1_A;VE2_A;VE3_A;VR1_A;VR2_A;VR3_A;nAtom;nHeavyAtom;nH;nC;ATS0dv;ATS1dv;ATS2dv;ATS3dv;ATS4dv;ATS5dv;ATS6dv;ATS7dv;ATS8dv;ATS0d;ATS1d;ATS2d;ATS3d;ATS4d;ATS5d;ATS6d;ATS7d;ATS8d;ATS0s;ATS1s;ATS2s;ATS3s;ATS4s;ATS5s;ATS6s;ATS7s;ATS8s;ATS0Z;ATS1Z;ATS2Z;ATS3Z;ATS4Z;ATS5Z;ATS6Z;ATS7Z;ATS8Z;ATS0m;ATS1m;ATS2m;ATS3m;ATS4m;ATS5m;ATS6m;ATS7m;ATS8m;ATS0v;ATS1v;ATS2v;ATS3v;ATS4v;ATS5v;ATS6v;ATS7v;ATS8v;ATS0se;ATS1se;ATS2se;ATS3se;ATS4se;ATS5se;ATS6se;ATS7se;ATS8se;ATS0pe;ATS1pe;ATS2pe;ATS3pe;ATS4pe;ATS5pe;ATS6pe;ATS7pe;ATS8pe;ATS0are;ATS1are;ATS2are;ATS3are;ATS4are;ATS5are;ATS6are;ATS7are;ATS8are;ATS0p;ATS1p;ATS2p;ATS3p;ATS4p;ATS5p;ATS6p;ATS7p;ATS8p;ATS0i;ATS1i;ATS2i;ATS3i;ATS4i;ATS5i;ATS6i;ATS7i;ATS8i;AATS0dv;AATS1dv;AATS2dv;AATS3dv;AATS0d;AATS1d;AATS2d;AATS3d;AATS0s;AATS1s;AATS2s;AATS3s;AATS0Z;AATS1Z;AATS2Z;AATS3Z;AATS0m;AATS1m;AATS2m;AATS3m;AATS0v;AATS1v;AATS2v;AATS3v;AATS0se;AATS1se;AATS2se;AATS3se;AATS0pe;AATS1pe;AATS2pe;AATS3pe;AATS0are;AATS1are;AATS2are;AATS3are;AATS0p;AATS1p;AATS2p;AATS3p;AATS0i;AATS1i;AATS2i;AATS3i;ATSC0c;ATSC1c;ATSC2c;ATSC3c;ATSC4c;ATSC5c;ATSC6c;ATSC7c;ATSC8c;ATSC0dv;ATSC1dv;ATSC2dv;ATSC3dv;ATSC4dv;ATSC5dv;ATSC6dv;ATSC7dv;ATSC8dv;ATSC0d;ATSC1d;ATSC2d;ATSC3d;ATSC4d;ATSC5d;ATSC6d;ATSC7d;ATSC8d;ATSC0s;ATSC1s;ATSC2s;ATSC3s;ATSC4s;ATSC5s;ATSC6s;ATSC7s;ATSC8s;ATSC0Z;ATSC1Z;ATSC2Z;ATSC3Z;ATSC4Z;ATSC5Z;ATSC6Z;ATSC7Z;ATSC8Z;ATSC0m;ATSC1m;ATSC2m;ATSC3m;ATSC4m;ATSC5m;ATSC6m;ATSC7m;ATSC8m;ATSC0v;ATSC1v;ATSC2v;ATSC3v;ATSC4v;ATSC5v;ATSC6v;ATSC7v;ATSC8v;ATSC0se;ATSC1se;ATSC2se;ATSC3se;ATSC4se;ATSC5se;ATSC6se;ATSC7se;ATSC8se;ATSC0pe;ATSC1pe;ATSC2pe;ATSC3pe;ATSC4pe;ATSC5pe;ATSC6pe;ATSC7pe;ATSC8pe;ATSC0are;ATSC1are;ATSC2are;ATSC3are;ATSC4are;ATSC5are;ATSC6are;ATSC7are;ATSC8are;ATSC0p;ATSC1p;ATSC2p;ATSC3p;ATSC4p;ATSC5p;ATSC6p;ATSC7p;ATSC8p;ATSC0i;ATSC1i;ATSC2i;ATSC3i;ATSC4i;ATSC5i;ATSC6i;ATSC7i;ATSC8i;AATSC0c;AATSC1c;AATSC2c;AATSC3c;AATSC0dv;AATSC1dv;AATSC2dv;AATSC3dv;AATSC0d;AATSC1d;AATSC2d;AATSC3d;AATSC0s;AATSC1s;AATSC2s;AATSC3s;AATSC0Z;AATSC1Z;AATSC2Z;AATSC3Z;AATSC0m;AATSC1m;AATSC2m;AATSC3m;AATSC0v;AATSC1v;AATSC2v;AATSC3v;AATSC0se;AATSC1se;AATSC2se;AATSC3se;AATSC0pe;AATSC1pe;AATSC2pe;AATSC3pe;AATSC0are;AATSC1are;AATSC2are;AATSC3are;AATSC0p;AATSC1p;AATSC2p;AATSC3p;AATSC0i;AATSC1i;AATSC2i;AATSC3i;MATS1c;MATS2c;MATS3c;MATS1dv;MATS2dv;MATS3dv;MATS1s;MATS2s;MATS3s;MATS1Z;MATS2Z;MATS3Z;MATS1m;MATS2m;MATS3m;MATS1v;MATS2v;MATS3v;MATS1se;MATS2se;MATS3se;MATS1pe;MATS2pe;MATS3pe;MATS1are;MATS2are;MATS3are;MATS1p;MATS2p;MATS3p;MATS1i;MATS2i;MATS3i;GATS1c;GATS2c;GATS3c;GATS1dv;GATS2dv;GATS3dv;GATS1s;GATS2s;GATS3s;GATS1Z;GATS2Z;GATS3Z;GATS1m;GATS2m;GATS3m;GATS1v;GATS2v;GATS3v;GATS1se;GATS2se;GATS3se;GATS1pe;GATS2pe;GATS3pe;GATS1are;GATS2are;GATS3are;GATS1p;GATS2p;GATS3p;GATS1i;GATS2i;GATS3i;BCUTc-1h;BCUTc-1l;BCUTdv-1h;BCUTdv-1l;BCUTd-1h;BCUTd-1l;BCUTs-1h;BCUTs-1l;BCUTZ-1h;BCUTZ-1l;BCUTm-1h;BCUTm-1l;BCUTv-1h;BCUTv-1l;BCUTse-1h;BCUTse-1l;BCUTpe-1h;BCUTpe-1l;BCUTare-1h;BCUTare-1l;BCUTp-1h;BCUTp-1l;BCUTi-1h;BCUTi-1l;BalabanJ;SpAbs_DzZ;SpMax_DzZ;SpDiam_DzZ;SpAD_DzZ;SpMAD_DzZ;LogEE_DzZ;VE1_DzZ;VE2_DzZ;VE3_DzZ;VR1_DzZ;VR2_DzZ;VR3_DzZ;SpAbs_Dzm;SpMax_Dzm;SpDiam_Dzm;SpAD_Dzm;SpMAD_Dzm;LogEE_Dzm;VE1_Dzm;VE2_Dzm;VE3_Dzm;VR1_Dzm;VR2_Dzm;VR3_Dzm;SpAbs_Dzv;SpMax_Dzv;SpDiam_Dzv;SpAD_Dzv;SpMAD_Dzv;LogEE_Dzv;VE1_Dzv;VE2_Dzv;VE3_Dzv;VR1_Dzv;VR2_Dzv;VR3_Dzv;SpAbs_Dzse;SpMax_Dzse;SpDiam_Dzse;SpAD_Dzse;SpMAD_Dzse;LogEE_Dzse;VE1_Dzse;VE2_Dzse;VE3_Dzse;VR1_Dzse;VR2_Dzse;VR3_Dzse;SpAbs_Dzpe;SpMax_Dzpe;SpDiam_Dzpe;SpAD_Dzpe;SpMAD_Dzpe;LogEE_Dzpe;VE1_Dzpe;VE2_Dzpe;VE3_Dzpe;VR1_Dzpe;VR2_Dzpe;VR3_Dzpe;SpAbs_Dzare;SpMax_Dzare;SpDiam_Dzare;SpAD_Dzare;SpMAD_Dzare;LogEE_Dzare;VE1_Dzare;VE2_Dzare;VE3_Dzare;VR1_Dzare;VR2_Dzare;VR3_Dzare;SpAbs_Dzp;SpMax_Dzp;SpDiam_Dzp;SpAD_Dzp;SpMAD_Dzp;LogEE_Dzp;VE1_Dzp;VE2_Dzp;VE3_Dzp;VR1_Dzp;VR2_Dzp;VR3_Dzp;SpAbs_Dzi;SpMax_Dzi;SpDiam_Dzi;SpAD_Dzi;SpMAD_Dzi;LogEE_Dzi;VE1_Dzi;VE2_Dzi;VE3_Dzi;VR1_Dzi;VR2_Dzi;VR3_Dzi;BertzCT;nBonds;nBondsO;nBondsS;nBondsKS;RNCG;RPCG;C1SP3;C2SP3;C3SP3;C4SP3;Xc-3d;Xc-4d;Xc-5d;Xc-6d;Xc-3dv;Xc-4dv;Xc-5dv;Xc-6dv;Xpc-4d;Xpc-5d;Xpc-6d;Xpc-4dv;Xpc-5dv;Xpc-6dv;Xp-0d;Xp-1d;Xp-2d;Xp-3d;Xp-4d;Xp-5d;Xp-6d;Xp-7d;AXp-0d;AXp-1d;Xp-0dv;Xp-1dv;Xp-2dv;Xp-3dv;Xp-4dv;Xp-5dv;Xp-6dv;Xp-7dv;AXp-0dv;AXp-1dv;SZ;Sm;Sv;Sse;Spe;Sare;Sp;Si;MZ;Mm;Mv;Mse;Mpe;Mare;Mp;Mi;SpAbs_D;SpMax_D;SpDiam_D;SpAD_D;SpMAD_D;LogEE_D;VE1_D;VE2_D;VE3_D;VR1_D;VR2_D;VR3_D;NsCH3;NssCH2;NsssCH;NssssC;SsCH3;SssCH2;SsssCH;SssssC;MAXsCH3;MINsCH3;ECIndex;ETA_alpha;ETA_shape_p;ETA_shape_y;ETA_shape_x;ETA_beta;AETA_beta;ETA_beta_s;AETA_beta_s;ETA_eta;AETA_eta;ETA_eta_L;AETA_eta_L;ETA_eta_R;AETA_eta_R;ETA_eta_RL;AETA_eta_RL;ETA_eta_B;AETA_eta_B;ETA_eta_BR;AETA_eta_BR;ETA_epsilon_1;ETA_epsilon_2;ETA_epsilon_3;ETA_epsilon_4;ETA_epsilon_5;ETA_dBeta;AETA_dBeta;ETA_psi_1;ETA_dPsi_B;fragCpx;IC0;IC1;IC2;IC3;IC4;IC5;TIC0;TIC1;TIC2;TIC3;TIC4;TIC5;SIC0;SIC1;SIC2;SIC3;SIC4;SIC5;BIC0;BIC1;BIC2;BIC3;BIC4;BIC5;CIC0;CIC1;CIC2;CIC3;CIC4;CIC5;MIC0;MIC1;MIC2;MIC3;MIC4;MIC5;ZMIC0;ZMIC1;ZMIC2;ZMIC3;ZMIC4;ZMIC5;Kier1;Lipinski;GhoseFilter;FilterItLogS;VMcGowan;LabuteASA;PEOE_VSA6;PEOE_VSA7;SMR_VSA4;SMR_VSA5;SlogP_VSA4;SlogP_VSA5;EState_VSA3;EState_VSA4;EState_VSA5;EState_VSA7;EState_VSA8;VSA_EState4;VSA_EState5;VSA_EState7;VSA_EState8;MDEC-11;MID;AMID;MID_C;AMID_C;MPC2;MPC3;MPC4;MPC5;MPC6;MPC7;MPC8;MPC9;MPC10;TMPC10;piPC1;piPC2;piPC3;piPC4;piPC5;piPC6;piPC7;piPC8;piPC9;piPC10;TpiPC10;apol;bpol;nRot;RotRatio;SLogP;SMR;GGI1;GGI2;GGI3;GGI4;GGI5;GGI6;GGI7;GGI8;GGI9;GGI10;JGI1;JGI2;JGI3;JGI4;JGI5;JGI6;JGI7;JGI8;JGI9;JGI10;JGT10;Diameter;Radius;TopoShapeIndex;PetitjeanIndex;Vabc;VAdjMat;MWC01;MWC02;MWC03;MWC04;MWC05;MWC06;MWC07;MWC08;MWC09;MWC10;TMWC10;SRW02;SRW04;SRW06;SRW08;SRW10;TSRW10;MW;AMW;WPath;WPol;Zagreb1;Zagreb2;mZagreb1;mZagreb2
49.7;CCC(C)(C)C;2,2-dimethylbutane;HNRMPXKDFBEGFZ-UHFFFAOYSA-N;5.8186258223528196;2.0743132930519432;4.148626586103886;5.8186258223528196;0.9697709703921366;2.62636349702538;2.2854998526347314;0.38091664210578857;0.31575913054531957;11.637366687675549;1.9395611146125915;1.943395563362391;20.0;6.0;14.0;6.0;24.0;22.0;13.0;3.0;0.0;0.0;0.0;0.0;0.0;38.0;38.0;78.0;63.0;63.0;27.0;0.0;0.0;0.0;33.8125;39.375;58.75;83.25;81.0;27.0;0.0;0.0;0.0;230.0;264.0;361.0;330.0;153.0;27.0;0.0;0.0;0.0;879.809622;890.8198369999998;1216.7710869999999;874.7439149999998;263.65046399999994;27.433728000000002;0.0;0.0;0.0;2976.2738325290024;3723.897137933909;5204.4928517757;5587.571361172241;3464.0275940611973;839.261099635117;0.0;0.0;0.0;139.30159200000003;137.349428;254.00575599999996;319.16708400000005;430.448256;181.398528;0.0;0.0;0.0;106.77500000000002;111.0525;198.1975;250.5075;318.78;130.68;0.0;0.0;0.0;105.26000000000002;108.25;194.67000000000002;245.79;316.79999999999995;130.68;0.0;0.0;0.0;22.95798066788599;29.53412034;43.118976723036994;51.121972589094;40.051378298204995;12.004548430922998;0.0;0.0;0.0;3349.613264879486;2777.6874484306;5741.450732351637;7002.300698079895;11077.500199923405;4992.776604654722;0.0;0.0;0.0;1.2;1.1578947368421053;0.3611111111111111;0.06666666666666667;1.9;2.0;2.1666666666666665;1.4;1.690625;2.0723684210526314;1.6319444444444444;1.85;11.5;13.894736842105264;10.027777777777779;7.333333333333333;43.9904811;46.885254578947354;33.799196861111106;19.438753666666663;148.81369162645012;195.99458620704786;144.56924588265832;124.16825247049425;6.965079600000001;7.228917263157894;7.055715444444443;7.0926018666666675;5.338750000000001;5.844868421052631;5.505486111111111;5.566833333333333;5.263000000000001;5.697368421052632;5.407500000000001;5.462;1.1478990333942996;1.5544273863157896;1.1977493534176942;1.1360438353132;167.4806632439743;146.19407623318946;159.48474256532324;155.60668217955322;0.02723448364318874;-0.007763478368122908;0.012657411217467262;-0.033367300962968374;0.00017710651308241662;0.014679019778947224;0.0;0.0;0.0;19.0;6.75;-14.0;-15.75;6.75;6.75;0.0;0.0;0.0;9.199999999999996;0.5600000000000003;-6.959999999999997;-1.7999999999999998;2.5199999999999987;1.0799999999999994;0.0;0.0;0.0;3.184375;-2.06578125;2.5056249999999998;-2.8335937500000004;-0.7214062499999994;1.5229687500000004;0.0;0.0;0.0;105.0;-12.25;31.0;-138.75;6.75;60.75;0.0;0.0;0.0;508.4772378;-59.322344409999836;150.12185116000006;-671.9163499499996;32.68782242999974;294.19040186999973;0.0;0.0;0.0;945.5351364447349;-110.312432585219;279.157992664636;-1249.4571445876854;60.78440162858999;547.0596146573109;0.0;0.0;0.0;0.09960719999999991;-0.011620839999999638;0.029407840000000206;-0.13162379999999946;0.006403319999999456;0.05762987999999949;0.0;0.0;0.0;0.5144999999999988;-0.06002500000000223;0.15189999999999815;-0.6798750000000013;0.03307500000000363;0.2976750000000024;0.0;0.0;0.0;0.37799999999999956;-0.044100000000001305;0.11159999999999895;-0.49950000000000105;0.02430000000000207;0.21870000000000145;0.0;0.0;0.0;4.2269819963658;-0.49314789957600735;1.2479661132127617;-5.585654780911947;0.2717345569092259;2.4456110121830665;0.0;0.0;0.0;22.96103329148577;-2.6787872173400182;6.7789717336767445;-30.341365420891933;1.4760664258812453;13.28459783293107;0.0;0.0;0.0;0.001361724182159437;-0.0004086041246380478;0.0003515947560407573;-0.0007414955769548527;0.95;0.35526315789473684;-0.3888888888888889;-0.35;0.4599999999999998;0.02947368421052633;-0.19333333333333325;-0.039999999999999994;0.15921875000000002;-0.10872532894736843;0.06960069444444444;-0.06296875;5.25;-0.6447368421052632;0.8611111111111112;-3.0833333333333335;25.42386189;-3.1222286531578862;4.170051421111113;-14.931474443333324;47.27675682223675;-5.805917504485211;7.754388685128778;-27.765714324170787;0.004980359999999995;-0.0006116231578947177;0.0008168844444444501;-0.0029249733333333214;0.025724999999999942;-0.0031592105263159066;0.004219444444444393;-0.015108333333333362;0.01889999999999998;-0.002321052631579016;0.003099999999999971;-0.011100000000000023;0.21134909981829;-0.025955152609263545;0.03466572536702116;-0.12412566179804325;1.1480516645742884;-0.14098880091263255;0.18830477037990956;-0.6742525649087097;-0.30006379411583844;0.2581982171185317;-0.5445269950181696;0.3739612188365651;-0.4093567251461988;-0.3684210526315789;-0.6828676204741492;0.4371388071093665;-0.3954857703631011;-0.12280701754385966;0.164021164021164;-0.5873015873015873;-0.12280701754385931;0.16402116402116407;-0.5873015873015869;-0.12280701754385957;0.164021164021164;-0.5873015873015873;-0.12280701754385592;0.16402116402116532;-0.5873015873015854;-0.12280701754386447;0.1640211640211624;-0.5873015873015898;-0.12280701754386343;0.16402116402116268;-0.5873015873015892;-0.12280701754385898;0.16402116402116426;-0.5873015873015869;-0.1228070175438602;0.16402116402116385;-0.5873015873015878;1.8418352933277184;0.7521539645062078;1.8118758446217145;1.368421052631579;2.8055555555555554;1.2;2.276741903827282;0.3936321011885291;1.7526987242394505;1.6666666666666667;1.0052910052910053;1.8095238095238095;1.6666666666666672;1.0052910052910053;1.8095238095238098;1.666666666666667;1.0052910052910056;1.8095238095238098;1.6666666666666663;1.005291005291005;1.8095238095238089;1.666666666666667;1.0052910052910056;1.8095238095238102;1.6666666666666667;1.0052910052910053;1.8095238095238098;1.6666666666666667;1.0052910052910051;1.8095238095238095;1.6666666666666674;1.0052910052910058;1.8095238095238104;0.212708724872489;-0.23623751739347265;4.017022705437666;0.9866115722243104;4.017022705437666;0.9866115722243104;2.050421717292166;1.1743002860131553;6.2247310217323255;5.778792446073724;12.235731021732326;11.789792446073728;20.804257297847837;20.35831872218926;2.970731021732324;2.524792446073723;2.7747310217323236;2.328792446073722;2.7247310217323286;2.278792446073723;1.8947310217323252;1.4487924460737236;11.485031021732336;11.039092446073727;3.168489872670569;19.340422037469253;9.670211018734628;13.81112759968238;19.340422037469253;3.2234036729115423;9.670353541290892;2.4111008437488923;0.4018501406248154;0.3692578010821432;14.407242638065581;2.4012071063442635;2.156905417350264;19.340422037469253;9.670211018734628;13.81112759968238;19.340422037469253;3.2234036729115423;9.670353541290892;2.4111008437488923;0.4018501406248154;0.3692578010821432;14.407242638065581;2.4012071063442635;2.156905417350264;19.340422037469253;9.670211018734628;13.81112759968238;19.340422037469253;3.2234036729115423;9.670353541290892;2.4111008437488923;0.4018501406248154;0.3692578010821432;14.407242638065581;2.4012071063442635;2.156905417350264;19.340422037469253;9.670211018734628;13.81112759968238;19.340422037469253;3.2234036729115423;9.670353541290892;2.4111008437488923;0.4018501406248154;0.3692578010821432;14.407242638065581;2.4012071063442635;2.156905417350264;19.340422037469253;9.670211018734628;13.81112759968238;19.340422037469253;3.2234036729115423;9.670353541290892;2.4111008437488923;0.4018501406248154;0.3692578010821432;14.407242638065581;2.4012071063442635;2.156905417350264;19.340422037469253;9.670211018734628;13.81112759968238;19.340422037469253;3.2234036729115423;9.670353541290892;2.4111008437488923;0.4018501406248154;0.3692578010821432;14.407242638065581;2.4012071063442635;2.156905417350264;19.340422037469253;9.670211018734628;13.81112759968238;19.340422037469253;3.2234036729115423;9.670353541290892;2.4111008437488923;0.4018501406248154;0.3692578010821432;14.407242638065581;2.4012071063442635;2.156905417350264;19.340422037469253;9.670211018734628;13.81112759968238;19.340422037469253;3.2234036729115423;9.670353541290892;2.4111008437488923;0.4018501406248154;0.3692578010821432;14.407242638065581;2.4012071063442635;2.156905417350264;29.793193904479523;19.0;5.0;19.0;19.0;0.19355923254557791;0.08027156976924803;4.0;1.0;0.0;1.0;1.5606601717798214;0.3535533905932738;0.0;0.0;1.5606601717798214;0.3535533905932738;0.0;0.0;1.0606601717798214;0.3535533905932738;0.0;1.0606601717798214;0.3535533905932738;0.0;5.207106781186548;2.5606601717798214;2.914213562373095;1.0606601717798214;0.0;0.0;0.0;0.0;0.867851130197758;0.5121320343559643;5.207106781186548;2.5606601717798214;2.914213562373095;1.0606601717798214;0.0;0.0;0.0;0.0;0.867851130197758;0.5121320343559643;8.333333333333332;7.1749229872616755;9.792794626501122;19.214857975236708;18.078431372549023;18.32;11.589881437125747;22.90702752146923;0.41666666666666663;0.3587461493630838;0.4896397313250561;0.9607428987618354;0.9039215686274511;0.916;0.5794940718562873;1.1453513760734615;19.340422037469253;9.670211018734628;13.81112759968238;19.340422037469253;3.2234036729115423;9.670353541290892;2.4111008437488923;0.4018501406248154;0.3692578010821432;14.407242638065581;2.4012071063442635;2.156905417350264;4.0;1.0;0.0;1.0;8.9375;1.2708333333333333;0.0;0.5416666666666667;2.2430555555555554;2.2083333333333335;24.0;3.0;0.6666666666666666;0.0;0.16666666666666666;2.5;0.4166666666666667;2.5;0.4166666666666667;6.371320343559643;1.0618867239266072;2.5606601717798214;0.4267766952966369;6.371320343559643;1.0618867239266072;2.5606601717798214;0.4267766952966369;0.3535533905932735;0.05892556509887892;0.3535533905932735;0.05892556509887892;0.42000000000000004;0.6999999999999998;0.42000000000000004;0.42000000000000004;0.6999999999999998;-2.5;-0.4166666666666667;0.7142857142857144;0.00028571428571444457;5.0;0.8812908992306927;1.2567796494470393;1.833206219346495;2.319973094021975;2.319973094021975;2.319973094021975;17.625817984613853;25.135592988940786;36.6641243869299;46.3994618804395;46.3994618804395;46.3994618804395;0.20391151353795506;0.29079142962460447;0.42416397938574957;0.5367912290735225;0.5367912290735225;0.5367912290735225;0.20746373294780487;0.29585713161763205;0.4315530840733215;0.5461423451035509;0.5461423451035509;0.5461423451035509;3.44063719565667;3.0651484454403235;2.4887218755408673;2.0019550008653875;2.0019550008653875;2.0019550008653875;6.621890956207768;11.13188633505631;13.49822295819973;13.988883967872612;13.988883967872612;13.988883967872612;23.802045510726657;18.781228806123387;17.25008028662154;17.8411750544521;17.8411750544521;17.8411750544521;6.0;1.0;0.0;-1.7762061124533475;95.40000000000003;40.563961599812586;34.11577042168851;5.41499046939678;5.41499046939678;34.11577042168851;5.41499046939678;34.11577042168851;5.41499046939678;0.0;6.4208216229260096;0.0;27.694948798762496;0.5416666666666667;0.0;1.2708333333333333;8.9375;2.449489742783178;10.465990257669732;1.744331709611622;10.465990257669732;1.744331709611622;7.0;3.0;0.0;0.0;0.0;0.0;0.0;0.0;0.0;21.0;1.791759469228055;2.0794415416798357;1.3862943611198906;0.0;0.0;0.0;0.0;0.0;0.0;0.0;3.091042453358316;19.355102;14.044898;0.0;0.0;2.442500000000001;29.74599999999998;3.0;0.666666666666667;0.0;0.0;0.0;0.0;0.0;0.0;0.0;0.0;0.6000000000000001;0.09523809523809526;0.0;0.0;0.0;0.0;0.0;0.0;0.0;0.0;0.6952380952380953;3.0;2.0;0.5;0.3333333333333333;112.33237029088555;3.321928094887362;5.0;3.2188758248682006;3.8066624897703196;4.634728988229636;5.25227342804663;6.0844994130751715;6.70808408385307;7.541683099882111;8.166500319155052;9.000483164987708;65.41379081186791;2.3978952727983707;3.6635616461296463;5.081404364984463;6.532334292222349;7.989899374942939;31.66509495107777;86.109550448;4.3054775223999995;28.0;3.0;24.0;22.0;4.3125;1.375