boiling_point;SMILES;IUPAC_name;InChIKey;SpAbs_A;SpMax_A;SpDiam_A;SpAD_A;SpMAD_A;LogEE_A;VE1_A;VE2_A;VE3_A;VR1_A;VR2_A;VR3_A;nAtom;nHeavyAtom;nH;nC;ATS0dv;ATS1dv;ATS2dv;ATS3dv;ATS4dv;ATS5dv;ATS6dv;ATS7dv;ATS8dv;ATS0d;ATS1d;ATS2d;ATS3d;ATS4d;ATS5d;ATS6d;ATS7d;ATS8d;ATS0s;ATS1s;ATS2s;ATS3s;ATS4s;ATS5s;ATS6s;ATS7s;ATS8s;ATS0Z;ATS1Z;ATS2Z;ATS3Z;ATS4Z;ATS5Z;ATS6Z;ATS7Z;ATS8Z;ATS0m;ATS1m;ATS2m;ATS3m;ATS4m;ATS5m;ATS6m;ATS7m;ATS8m;ATS0v;ATS1v;ATS2v;ATS3v;ATS4v;ATS5v;ATS6v;ATS7v;ATS8v;ATS0se;ATS1se;ATS2se;ATS3se;ATS4se;ATS5se;ATS6se;ATS7se;ATS8se;ATS0pe;ATS1pe;ATS2pe;ATS3pe;ATS4pe;ATS5pe;ATS6pe;ATS7pe;ATS8pe;ATS0are;ATS1are;ATS2are;ATS3are;ATS4are;ATS5are;ATS6are;ATS7are;ATS8are;ATS0p;ATS1p;ATS2p;ATS3p;ATS4p;ATS5p;ATS6p;ATS7p;ATS8p;ATS0i;ATS1i;ATS2i;ATS3i;ATS4i;ATS5i;ATS6i;ATS7i;ATS8i;AATS0dv;AATS1dv;AATS2dv;AATS3dv;AATS0d;AATS1d;AATS2d;AATS3d;AATS0s;AATS1s;AATS2s;AATS3s;AATS0Z;AATS1Z;AATS2Z;AATS3Z;AATS0m;AATS1m;AATS2m;AATS3m;AATS0v;AATS1v;AATS2v;AATS3v;AATS0se;AATS1se;AATS2se;AATS3se;AATS0pe;AATS1pe;AATS2pe;AATS3pe;AATS0are;AATS1are;AATS2are;AATS3are;AATS0p;AATS1p;AATS2p;AATS3p;AATS0i;AATS1i;AATS2i;AATS3i;ATSC0c;ATSC1c;ATSC2c;ATSC3c;ATSC4c;ATSC5c;ATSC6c;ATSC7c;ATSC8c;ATSC0dv;ATSC1dv;ATSC2dv;ATSC3dv;ATSC4dv;ATSC5dv;ATSC6dv;ATSC7dv;ATSC8dv;ATSC0d;ATSC1d;ATSC2d;ATSC3d;ATSC4d;ATSC5d;ATSC6d;ATSC7d;ATSC8d;ATSC0s;ATSC1s;ATSC2s;ATSC3s;ATSC4s;ATSC5s;ATSC6s;ATSC7s;ATSC8s;ATSC0Z;ATSC1Z;ATSC2Z;ATSC3Z;ATSC4Z;ATSC5Z;ATSC6Z;ATSC7Z;ATSC8Z;ATSC0m;ATSC1m;ATSC2m;ATSC3m;ATSC4m;ATSC5m;ATSC6m;ATSC7m;ATSC8m;ATSC0v;ATSC1v;ATSC2v;ATSC3v;ATSC4v;ATSC5v;ATSC6v;ATSC7v;ATSC8v;ATSC0se;ATSC1se;ATSC2se;ATSC3se;ATSC4se;ATSC5se;ATSC6se;ATSC7se;ATSC8se;ATSC0pe;ATSC1pe;ATSC2pe;ATSC3pe;ATSC4pe;ATSC5pe;ATSC6pe;ATSC7pe;ATSC8pe;ATSC0are;ATSC1are;ATSC2are;ATSC3are;ATSC4are;ATSC5are;ATSC6are;ATSC7are;ATSC8are;ATSC0p;ATSC1p;ATSC2p;ATSC3p;ATSC4p;ATSC5p;ATSC6p;ATSC7p;ATSC8p;ATSC0i;ATSC1i;ATSC2i;ATSC3i;ATSC4i;ATSC5i;ATSC6i;ATSC7i;ATSC8i;AATSC0c;AATSC1c;AATSC2c;AATSC3c;AATSC0dv;AATSC1dv;AATSC2dv;AATSC3dv;AATSC0d;AATSC1d;AATSC2d;AATSC3d;AATSC0s;AATSC1s;AATSC2s;AATSC3s;AATSC0Z;AATSC1Z;AATSC2Z;AATSC3Z;AATSC0m;AATSC1m;AATSC2m;AATSC3m;AATSC0v;AATSC1v;AATSC2v;AATSC3v;AATSC0se;AATSC1se;AATSC2se;AATSC3se;AATSC0pe;AATSC1pe;AATSC2pe;AATSC3pe;AATSC0are;AATSC1are;AATSC2are;AATSC3are;AATSC0p;AATSC1p;AATSC2p;AATSC3p;AATSC0i;AATSC1i;AATSC2i;AATSC3i;MATS1c;MATS2c;MATS3c;MATS1dv;MATS2dv;MATS3dv;MATS1s;MATS2s;MATS3s;MATS1Z;MATS2Z;MATS3Z;MATS1m;MATS2m;MATS3m;MATS1v;MATS2v;MATS3v;MATS1se;MATS2se;MATS3se;MATS1pe;MATS2pe;MATS3pe;MATS1are;MATS2are;MATS3are;MATS1p;MATS2p;MATS3p;MATS1i;MATS2i;MATS3i;GATS1c;GATS2c;GATS3c;GATS1dv;GATS2dv;GATS3dv;GATS1s;GATS2s;GATS3s;GATS1Z;GATS2Z;GATS3Z;GATS1m;GATS2m;GATS3m;GATS1v;GATS2v;GATS3v;GATS1se;GATS2se;GATS3se;GATS1pe;GATS2pe;GATS3pe;GATS1are;GATS2are;GATS3are;GATS1p;GATS2p;GATS3p;GATS1i;GATS2i;GATS3i;BCUTc-1h;BCUTc-1l;BCUTdv-1h;BCUTdv-1l;BCUTd-1h;BCUTd-1l;BCUTs-1h;BCUTs-1l;BCUTZ-1h;BCUTZ-1l;BCUTm-1h;BCUTm-1l;BCUTv-1h;BCUTv-1l;BCUTse-1h;BCUTse-1l;BCUTpe-1h;BCUTpe-1l;BCUTare-1h;BCUTare-1l;BCUTp-1h;BCUTp-1l;BCUTi-1h;BCUTi-1l;BalabanJ;SpAbs_DzZ;SpMax_DzZ;SpDiam_DzZ;SpAD_DzZ;SpMAD_DzZ;LogEE_DzZ;VE1_DzZ;VE2_DzZ;VE3_DzZ;VR1_DzZ;VR2_DzZ;VR3_DzZ;SpAbs_Dzm;SpMax_Dzm;SpDiam_Dzm;SpAD_Dzm;SpMAD_Dzm;LogEE_Dzm;VE1_Dzm;VE2_Dzm;VE3_Dzm;VR1_Dzm;VR2_Dzm;VR3_Dzm;SpAbs_Dzv;SpMax_Dzv;SpDiam_Dzv;SpAD_Dzv;SpMAD_Dzv;LogEE_Dzv;VE1_Dzv;VE2_Dzv;VE3_Dzv;VR1_Dzv;VR2_Dzv;VR3_Dzv;SpAbs_Dzse;SpMax_Dzse;SpDiam_Dzse;SpAD_Dzse;SpMAD_Dzse;LogEE_Dzse;VE1_Dzse;VE2_Dzse;VE3_Dzse;VR1_Dzse;VR2_Dzse;VR3_Dzse;SpAbs_Dzpe;SpMax_Dzpe;SpDiam_Dzpe;SpAD_Dzpe;SpMAD_Dzpe;LogEE_Dzpe;VE1_Dzpe;VE2_Dzpe;VE3_Dzpe;VR1_Dzpe;VR2_Dzpe;VR3_Dzpe;SpAbs_Dzare;SpMax_Dzare;SpDiam_Dzare;SpAD_Dzare;SpMAD_Dzare;LogEE_Dzare;VE1_Dzare;VE2_Dzare;VE3_Dzare;VR1_Dzare;VR2_Dzare;VR3_Dzare;SpAbs_Dzp;SpMax_Dzp;SpDiam_Dzp;SpAD_Dzp;SpMAD_Dzp;LogEE_Dzp;VE1_Dzp;VE2_Dzp;VE3_Dzp;VR1_Dzp;VR2_Dzp;VR3_Dzp;SpAbs_Dzi;SpMax_Dzi;SpDiam_Dzi;SpAD_Dzi;SpMAD_Dzi;LogEE_Dzi;VE1_Dzi;VE2_Dzi;VE3_Dzi;VR1_Dzi;VR2_Dzi;VR3_Dzi;BertzCT;nBonds;nBondsO;nBondsS;nBondsKS;RNCG;RPCG;C1SP3;C2SP3;C3SP3;C4SP3;Xc-3d;Xc-4d;Xc-5d;Xc-6d;Xc-3dv;Xc-4dv;Xc-5dv;Xc-6dv;Xpc-4d;Xpc-5d;Xpc-6d;Xpc-4dv;Xpc-5dv;Xpc-6dv;Xp-0d;Xp-1d;Xp-2d;Xp-3d;Xp-4d;Xp-5d;Xp-6d;Xp-7d;AXp-0d;AXp-1d;Xp-0dv;Xp-1dv;Xp-2dv;Xp-3dv;Xp-4dv;Xp-5dv;Xp-6dv;Xp-7dv;AXp-0dv;AXp-1dv;SZ;Sm;Sv;Sse;Spe;Sare;Sp;Si;MZ;Mm;Mv;Mse;Mpe;Mare;Mp;Mi;SpAbs_D;SpMax_D;SpDiam_D;SpAD_D;SpMAD_D;LogEE_D;VE1_D;VE2_D;VE3_D;VR1_D;VR2_D;VR3_D;NsCH3;NssCH2;NsssCH;NssssC;SsCH3;SssCH2;SsssCH;SssssC;MAXsCH3;MINsCH3;ECIndex;ETA_alpha;ETA_shape_p;ETA_shape_y;ETA_shape_x;ETA_beta;AETA_beta;ETA_beta_s;AETA_beta_s;ETA_eta;AETA_eta;ETA_eta_L;AETA_eta_L;ETA_eta_R;AETA_eta_R;ETA_eta_RL;AETA_eta_RL;ETA_eta_B;AETA_eta_B;ETA_eta_BR;AETA_eta_BR;ETA_epsilon_1;ETA_epsilon_2;ETA_epsilon_3;ETA_epsilon_4;ETA_epsilon_5;ETA_dBeta;AETA_dBeta;ETA_psi_1;ETA_dPsi_B;fragCpx;IC0;IC1;IC2;IC3;IC4;IC5;TIC0;TIC1;TIC2;TIC3;TIC4;TIC5;SIC0;SIC1;SIC2;SIC3;SIC4;SIC5;BIC0;BIC1;BIC2;BIC3;BIC4;BIC5;CIC0;CIC1;CIC2;CIC3;CIC4;CIC5;MIC0;MIC1;MIC2;MIC3;MIC4;MIC5;ZMIC0;ZMIC1;ZMIC2;ZMIC3;ZMIC4;ZMIC5;Kier1;Lipinski;GhoseFilter;FilterItLogS;VMcGowan;LabuteASA;PEOE_VSA6;PEOE_VSA7;SMR_VSA4;SMR_VSA5;SlogP_VSA4;SlogP_VSA5;EState_VSA3;EState_VSA4;EState_VSA5;EState_VSA7;EState_VSA8;VSA_EState4;VSA_EState5;VSA_EState7;VSA_EState8;MDEC-11;MID;AMID;MID_C;AMID_C;MPC2;MPC3;MPC4;MPC5;MPC6;MPC7;MPC8;MPC9;MPC10;TMPC10;piPC1;piPC2;piPC3;piPC4;piPC5;piPC6;piPC7;piPC8;piPC9;piPC10;TpiPC10;apol;bpol;nRot;RotRatio;SLogP;SMR;GGI1;GGI2;GGI3;GGI4;GGI5;GGI6;GGI7;GGI8;GGI9;GGI10;JGI1;JGI2;JGI3;JGI4;JGI5;JGI6;JGI7;JGI8;JGI9;JGI10;JGT10;Diameter;Radius;TopoShapeIndex;PetitjeanIndex;Vabc;VAdjMat;MWC01;MWC02;MWC03;MWC04;MWC05;MWC06;MWC07;MWC08;MWC09;MWC10;TMWC10;SRW02;SRW04;SRW06;SRW08;SRW10;TSRW10;MW;AMW;WPath;WPol;Zagreb1;Zagreb2;mZagreb1;mZagreb2
133.0;CCCCCC(C)(C)C;2,2-dimethylheptane;PSABUFWDVWCFDP-UHFFFAOYSA-N;9.335326473284187;2.1168831578743355;4.233766315748671;9.335326473284187;1.0372584970315764;3.0283261658188705;2.637790740850961;0.29308786009455123;0.8645812105670878;34.030173159765305;3.781130351085034;3.4218870612865118;29.0;9.0;20.0;9.0;36.0;34.0;27.0;20.0;16.0;10.0;3.0;0.0;0.0;56.0;62.0;119.0;112.0;123.0;78.0;63.0;36.0;27.0;46.5625;55.125;86.625;118.625;115.375;76.0;65.25;54.0;27.0;344.0;408.0;544.0;522.0;395.0;304.0;240.0;126.0;27.0;1318.6983689999995;1396.2547279999994;1797.8966979999996;1465.0141019999996;1096.0526689999997;871.8622119999998;675.1054829999999;236.21673599999997;27.433728000000002;4433.327004362572;5682.86754140501;7945.1341867627025;8607.966396037617;6934.677455805018;5088.618011214776;4081.819666259651;2624.7664944260805;839.261099635117;202.2339240000001;202.67676799999998;382.19427999999994;507.821784;619.1503879999999;374.86695999999995;311.98206;249.04972799999996;181.398528;155.32250000000002;164.22;299.54499999999996;395.41499999999996;463.9325;284.95;236.64749999999998;188.10000000000002;130.68;153.05;160.0;293.94000000000005;388.62;459.81;281.52;233.91;186.12;130.68;33.992358096980006;44.582086200000006;66.18204715758401;78.186559167282;69.128813446091;48.102736155772;39.08120729637601;28.046829867282;12.004548430922998;4839.50224529498;4076.8058029780004;8514.057329249184;11439.166163195681;15525.299490416093;9053.567730722772;7574.612575684176;6084.723595268682;4992.776604654722;1.2413793103448276;1.2142857142857142;0.5;0.2777777777777778;1.9310344827586208;2.2142857142857144;2.2037037037037037;1.5555555555555556;1.605603448275862;1.96875;1.6041666666666667;1.6475694444444444;11.862068965517242;14.571428571428571;10.074074074074074;7.25;45.47235755172412;49.86624028571426;33.29438329629629;20.347418083333327;152.8733449780197;202.95955505017895;147.1321145696797;119.55508883385579;6.9735835862068996;7.238455999999999;7.077671851851851;7.053080333333333;5.35594827586207;5.865;5.547129629629629;5.491874999999999;5.277586206896552;5.714285714285714;5.443333333333334;5.3975;1.172150279206207;1.5922173642857145;1.2255934658811853;1.0859244328789166;166.8793877687924;145.6002072492143;157.66772831942933;158.87730782216224;0.04006413593546148;-0.007731131414415034;0.005657576558753303;-0.03617304979640812;0.015305935056984805;0.0006163403912911505;0.002783694963866601;-0.015157937566913554;0.014666503839110109;27.172413793103445;7.212841854934601;-16.14863258026159;-11.048751486325804;6.982164090368608;-3.3555291319857314;-6.474435196195007;1.0273483947681332;8.218787158145066;11.310344827586206;0.8727705112960755;-6.3365041617122495;-0.4946492271105826;1.002378121284186;-2.6468489892984546;-1.72294887039239;2.097502972651606;1.5731272294887044;3.7155172413793114;-1.9623959571938159;2.3142092746730087;-3.8174048751486316;1.2945154577883464;-0.10604934601664695;1.372473246135553;-2.207193816884661;1.254087395957193;155.17241379310346;-11.89060642092749;7.609988109393555;-142.15219976218793;62.39595719381691;-2.7348394768133133;-2.8537455410225867;-52.97265160523187;65.01189060642095;751.4441937931032;-57.581930558858296;36.85243555766958;-688.3919798311531;302.16118060760977;-13.243844028537552;-13.81966333412609;-256.5275006397146;314.82920533055864;1397.342566174485;-107.07605871068859;68.52867757484051;-1280.0942818862818;561.8816180843384;-24.627493503458425;-25.698254090565285;-477.0238415561174;585.4383510006897;0.14720275862068946;-0.011279904875146948;0.007219139120096422;-0.1348512627824004;0.05919130083234061;-0.0025943781212844907;-0.0027071771700360146;-0.05025197621878749;0.06167287990487358;0.7603448275862053;-0.05826397146254696;0.03728894173602654;-0.6965457788347211;0.3057401902497048;-0.013400713436384715;-0.013983353151010125;-0.25956599286563503;0.31855826397146414;0.5586206896551719;-0.04280618311534081;0.027395957193815365;-0.5117479191438774;0.22462544589774264;-0.009845422116527558;-0.010273483947680892;-0.19070154577883403;0.23404280618311685;6.246771423200688;-0.47867980254411097;0.3063550736282352;-5.722617039414881;2.5118722638502353;-0.11009635458514677;-0.11488315261058801;-2.132518520334029;2.6171818204099413;33.932561514511;-2.6001962846370503;1.6641256221674396;-31.085346582833797;13.644530003632118;-0.5980451454664397;-0.624047108312805;-11.583874448057156;14.216573186252193;0.0013815219288090166;-0.00027611183622910836;0.00010476993627320932;-0.0005024034693945572;0.9369797859690843;0.2576014948190929;-0.29904875148632576;-0.15345488175452504;0.3900118906064209;0.031170375403431268;-0.11734266966133795;-0.0068701281543136474;0.12812128418549348;-0.07008556989977914;0.042855727308759424;-0.0530195121548421;5.35077288941736;-0.42466451503312463;0.14092570572951027;-1.9743361078081658;25.911868751486317;-2.056497519959225;0.6824525103272144;-9.560999719877126;48.184226419809825;-3.8241449539531636;1.2690495847192689;-17.77908724842058;0.005075957193816878;-0.00040285374554096246;0.00013368776148326708;-0.0018729342053111166;0.026218787158145008;-0.0020808561236623914;0.0006905359580745655;-0.009674246928260015;0.01926278240190248;-0.0015287922541193147;0.0005073325406262105;-0.0071076099881094085;0.2154059111448513;-0.017095707233718248;0.005673242104226578;-0.07948079221409557;1.1700883280865861;-0.09286415302275179;0.03081714115124888;-0.4317409247615805;-0.19986062506234634;0.07583660750396447;-0.3636594243767593;0.27492748368382885;-0.31916243654822335;-0.16377608573040048;-0.5470251905866751;0.3344934261407579;-0.4138228280484659;-0.0793650793650795;0.026337448559670695;-0.36898148148148163;-0.07936507936507911;0.026337448559670892;-0.3689814814814814;-0.07936507936507942;0.026337448559670733;-0.36898148148148174;-0.07936507936506763;0.026337448559675552;-0.3689814814814778;-0.07936507936508276;0.026337448559669425;-0.3689814814814825;-0.07936507936508302;0.02633744855966935;-0.36898148148148263;-0.07936507936507886;0.026337448559670976;-0.36898148148148135;-0.07936507936508522;0.02633744855966841;-0.3689814814814833;1.7321319234446841;1.0063499325410972;1.5185903049681884;1.3984771573604062;2.347151720248167;1.0447687535250987;2.153132250580046;0.5233307553493167;1.6844708687806131;1.6111111111111112;1.1695473251028807;1.5037037037037038;1.6111111111111116;1.1695473251028814;1.5037037037037042;1.6111111111111116;1.1695473251028812;1.503703703703704;1.6111111111111116;1.1695473251028812;1.5037037037037042;1.6111111111111112;1.169547325102881;1.503703703703704;1.6111111111111107;1.1695473251028803;1.5037037037037033;1.6111111111111112;1.1695473251028807;1.5037037037037038;1.611111111111111;1.1695473251028807;1.503703703703704;0.21734865514999313;-0.23619103521732723;4.017028983676382;0.987140489760247;4.017028983676382;0.987140489760247;2.049028417793761;1.1725478816880786;6.227414113175981;5.777660074627151;12.238414113175981;11.78866007462715;20.80694038929152;20.357186350742687;2.9734141131759886;2.5236600746271534;2.777414113175988;2.3276600746271523;2.7274141131759855;2.2776600746271525;1.8974141131759859;1.4476600746271517;11.487714113175977;11.037960074627152;3.072989461365733;47.92689089340146;23.96344544670073;37.501568907202945;47.92689089340146;5.32521009926683;23.963445446829212;2.954008392714348;0.3282231547460387;0.9778025095828532;26.587206126502103;2.9541340140557892;3.175069611737471;47.92689089340146;23.96344544670073;37.501568907202945;47.92689089340146;5.32521009926683;23.963445446829212;2.954008392714348;0.3282231547460387;0.9778025095828532;26.587206126502103;2.9541340140557892;3.175069611737471;47.92689089340146;23.96344544670073;37.501568907202945;47.92689089340146;5.32521009926683;23.963445446829212;2.954008392714348;0.3282231547460387;0.9778025095828532;26.587206126502103;2.9541340140557892;3.175069611737471;47.92689089340146;23.96344544670073;37.501568907202945;47.92689089340146;5.32521009926683;23.963445446829212;2.954008392714348;0.3282231547460387;0.9778025095828532;26.587206126502103;2.9541340140557892;3.175069611737471;47.92689089340146;23.96344544670073;37.501568907202945;47.92689089340146;5.32521009926683;23.963445446829212;2.954008392714348;0.3282231547460387;0.9778025095828532;26.587206126502103;2.9541340140557892;3.175069611737471;47.92689089340146;23.96344544670073;37.501568907202945;47.92689089340146;5.32521009926683;23.963445446829212;2.954008392714348;0.3282231547460387;0.9778025095828532;26.587206126502103;2.9541340140557892;3.175069611737471;47.92689089340146;23.96344544670073;37.501568907202945;47.92689089340146;5.32521009926683;23.963445446829212;2.954008392714348;0.3282231547460387;0.9778025095828532;26.587206126502103;2.9541340140557892;3.175069611737471;47.92689089340146;23.96344544670073;37.501568907202945;47.92689089340146;5.32521009926683;23.963445446829212;2.954008392714348;0.3282231547460387;0.9778025095828532;26.587206126502103;2.9541340140557892;3.175069611737471;56.92878689342031;28.0;8.0;28.0;28.0;0.13206084079226482;0.05492044243378023;4.0;4.0;0.0;1.0;1.5606601717798214;0.3535533905932738;0.0;0.0;1.5606601717798214;0.3535533905932738;0.0;0.0;0.75;0.7803300858899107;0.5517766952966369;0.75;0.7803300858899107;0.5517766952966369;7.32842712474619;4.060660171779821;4.017766952966369;1.5303300858899105;0.9053300858899106;0.5;0.375;0.0;0.8142696805273544;0.5075825214724776;7.32842712474619;4.060660171779821;4.017766952966369;1.5303300858899105;0.9053300858899106;0.5;0.375;0.0;0.8142696805273544;0.5075825214724776;12.33333333333333;10.678461410373828;14.418278037858745;27.87836853605244;26.254901960784316;26.599999999999998;16.985544910179645;33.15289645924176;0.425287356321839;0.3682228072542699;0.49718200130547396;0.9613230529673256;0.9053414469235971;0.9172413793103448;0.5857084451786084;1.1432033261807504;47.92689089340146;23.96344544670073;37.501568907202945;47.92689089340146;5.32521009926683;23.963445446829212;2.954008392714348;0.3282231547460387;0.9778025095828532;26.587206126502103;2.9541340140557892;3.175069611737471;4.0;4.0;0.0;1.0;9.177222222222222;5.522013888888889;0.0;0.5507638888888888;2.308194444444444;2.252638888888889;76.0;4.5;0.4444444444444444;0.0;0.1111111111111111;4.0;0.4444444444444444;4.0;0.4444444444444444;10.698736465442835;1.188748496160315;4.060660171779821;0.4511844635310912;10.698736465442835;1.188748496160315;4.060660171779821;0.4511844635310912;0.35355339059327395;0.039283710065919325;0.35355339059327395;0.039283710065919325;0.4241379310344827;0.7;0.4241379310344827;0.4241379310344827;0.7;-4.0;-0.4444444444444444;0.7142857142857143;0.00028571428571433355;8.0;0.8935711016541907;1.3256167917569774;2.3140348740649053;3.1324947876342017;3.27042582211696;3.27042582211696;25.91356194797153;38.44288696095234;67.10701134788225;90.84234884139185;94.84234884139184;94.84234884139184;0.18393878085369605;0.27287401763953717;0.4763367490292411;0.6448141297333218;0.6732067962795886;0.6732067962795886;0.18587583320595183;0.27574764361055293;0.48135303333802354;0.6516046429734914;0.6802963116185272;0.6802963116185272;3.9644098934733814;3.5323642033705944;2.5439461210626666;1.7254862074933701;1.5875551730106117;1.5875551730106117;6.664965218283638;11.854266002108208;16.358314629546854;17.942149808631598;18.081184291390215;18.081184291390215;35.68332320783173;27.32073783211528;23.729363218853738;20.496950356681534;19.98440387526703;19.98440387526703;9.0;1.0;0.0;-3.056954700395046;137.67000000000004;59.6587879430024;46.95741366754052;11.83581209232279;5.41499046939678;53.37823529046652;5.41499046939678;53.37823529046652;5.41499046939678;0.0;25.683286491704038;0.0;27.694948798762496;0.5507638888888888;0.0;5.522013888888889;9.177222222222222;1.7320508075688774;16.436231733130747;1.8262479703478607;16.436231733130747;1.8262479703478607;10.0;6.0;5.0;4.0;3.0;0.0;0.0;0.0;0.0;45.0;2.1972245773362196;2.3978952727983707;1.9459101490553132;1.791759469228055;1.6094379124341003;1.3862943611198906;0.0;0.0;0.0;0.0;3.828641396489095;28.365859999999998;20.06414;3.0;0.375;3.6128000000000027;43.59700000000001;3.0;0.666666666666667;0.375;0.24000000000000005;0.16666666666666663;0.0;0.0;0.0;0.0;0.0;0.375;0.06666666666666671;0.06249999999999999;0.04800000000000001;0.04166666666666666;0.0;0.0;0.0;0.0;0.0;0.5938333333333333;6.0;3.0;1.0;0.5;164.22032596245742;4.0;8.0;3.6109179126442243;4.23410650459726;5.043425116919247;5.6937321388027;6.51471269087253;7.173958319756794;8.000014093678072;8.663023639627777;9.491677356868124;75.42556777376673;2.833213344056216;4.04305126783455;5.3981627015177525;6.816735880594968;8.26796230533871;36.3591254993422;128.15650064;4.419189677241379;104.0;6.0;36.0;34.0;5.0625;2.125