boiling_point;SMILES;IUPAC_name;InChIKey;SpAbs_A;SpMax_A;SpDiam_A;SpAD_A;SpMAD_A;LogEE_A;VE1_A;VE2_A;VE3_A;VR1_A;VR2_A;VR3_A;nAtom;nHeavyAtom;nH;nC;ATS0dv;ATS1dv;ATS2dv;ATS3dv;ATS4dv;ATS5dv;ATS6dv;ATS7dv;ATS8dv;ATS0d;ATS1d;ATS2d;ATS3d;ATS4d;ATS5d;ATS6d;ATS7d;ATS8d;ATS0s;ATS1s;ATS2s;ATS3s;ATS4s;ATS5s;ATS6s;ATS7s;ATS8s;ATS0Z;ATS1Z;ATS2Z;ATS3Z;ATS4Z;ATS5Z;ATS6Z;ATS7Z;ATS8Z;ATS0m;ATS1m;ATS2m;ATS3m;ATS4m;ATS5m;ATS6m;ATS7m;ATS8m;ATS0v;ATS1v;ATS2v;ATS3v;ATS4v;ATS5v;ATS6v;ATS7v;ATS8v;ATS0se;ATS1se;ATS2se;ATS3se;ATS4se;ATS5se;ATS6se;ATS7se;ATS8se;ATS0pe;ATS1pe;ATS2pe;ATS3pe;ATS4pe;ATS5pe;ATS6pe;ATS7pe;ATS8pe;ATS0are;ATS1are;ATS2are;ATS3are;ATS4are;ATS5are;ATS6are;ATS7are;ATS8are;ATS0p;ATS1p;ATS2p;ATS3p;ATS4p;ATS5p;ATS6p;ATS7p;ATS8p;ATS0i;ATS1i;ATS2i;ATS3i;ATS4i;ATS5i;ATS6i;ATS7i;ATS8i;AATS0dv;AATS1dv;AATS2dv;AATS3dv;AATS0d;AATS1d;AATS2d;AATS3d;AATS0s;AATS1s;AATS2s;AATS3s;AATS0Z;AATS1Z;AATS2Z;AATS3Z;AATS0m;AATS1m;AATS2m;AATS3m;AATS0v;AATS1v;AATS2v;AATS3v;AATS0se;AATS1se;AATS2se;AATS3se;AATS0pe;AATS1pe;AATS2pe;AATS3pe;AATS0are;AATS1are;AATS2are;AATS3are;AATS0p;AATS1p;AATS2p;AATS3p;AATS0i;AATS1i;AATS2i;AATS3i;ATSC0c;ATSC1c;ATSC2c;ATSC3c;ATSC4c;ATSC5c;ATSC6c;ATSC7c;ATSC8c;ATSC0dv;ATSC1dv;ATSC2dv;ATSC3dv;ATSC4dv;ATSC5dv;ATSC6dv;ATSC7dv;ATSC8dv;ATSC0d;ATSC1d;ATSC2d;ATSC3d;ATSC4d;ATSC5d;ATSC6d;ATSC7d;ATSC8d;ATSC0s;ATSC1s;ATSC2s;ATSC3s;ATSC4s;ATSC5s;ATSC6s;ATSC7s;ATSC8s;ATSC0Z;ATSC1Z;ATSC2Z;ATSC3Z;ATSC4Z;ATSC5Z;ATSC6Z;ATSC7Z;ATSC8Z;ATSC0m;ATSC1m;ATSC2m;ATSC3m;ATSC4m;ATSC5m;ATSC6m;ATSC7m;ATSC8m;ATSC0v;ATSC1v;ATSC2v;ATSC3v;ATSC4v;ATSC5v;ATSC6v;ATSC7v;ATSC8v;ATSC0se;ATSC1se;ATSC2se;ATSC3se;ATSC4se;ATSC5se;ATSC6se;ATSC7se;ATSC8se;ATSC0pe;ATSC1pe;ATSC2pe;ATSC3pe;ATSC4pe;ATSC5pe;ATSC6pe;ATSC7pe;ATSC8pe;ATSC0are;ATSC1are;ATSC2are;ATSC3are;ATSC4are;ATSC5are;ATSC6are;ATSC7are;ATSC8are;ATSC0p;ATSC1p;ATSC2p;ATSC3p;ATSC4p;ATSC5p;ATSC6p;ATSC7p;ATSC8p;ATSC0i;ATSC1i;ATSC2i;ATSC3i;ATSC4i;ATSC5i;ATSC6i;ATSC7i;ATSC8i;AATSC0c;AATSC1c;AATSC2c;AATSC3c;AATSC0dv;AATSC1dv;AATSC2dv;AATSC3dv;AATSC0d;AATSC1d;AATSC2d;AATSC3d;AATSC0s;AATSC1s;AATSC2s;AATSC3s;AATSC0Z;AATSC1Z;AATSC2Z;AATSC3Z;AATSC0m;AATSC1m;AATSC2m;AATSC3m;AATSC0v;AATSC1v;AATSC2v;AATSC3v;AATSC0se;AATSC1se;AATSC2se;AATSC3se;AATSC0pe;AATSC1pe;AATSC2pe;AATSC3pe;AATSC0are;AATSC1are;AATSC2are;AATSC3are;AATSC0p;AATSC1p;AATSC2p;AATSC3p;AATSC0i;AATSC1i;AATSC2i;AATSC3i;MATS1c;MATS2c;MATS3c;MATS1dv;MATS2dv;MATS3dv;MATS1s;MATS2s;MATS3s;MATS1Z;MATS2Z;MATS3Z;MATS1m;MATS2m;MATS3m;MATS1v;MATS2v;MATS3v;MATS1se;MATS2se;MATS3se;MATS1pe;MATS2pe;MATS3pe;MATS1are;MATS2are;MATS3are;MATS1p;MATS2p;MATS3p;MATS1i;MATS2i;MATS3i;GATS1c;GATS2c;GATS3c;GATS1dv;GATS2dv;GATS3dv;GATS1s;GATS2s;GATS3s;GATS1Z;GATS2Z;GATS3Z;GATS1m;GATS2m;GATS3m;GATS1v;GATS2v;GATS3v;GATS1se;GATS2se;GATS3se;GATS1pe;GATS2pe;GATS3pe;GATS1are;GATS2are;GATS3are;GATS1p;GATS2p;GATS3p;GATS1i;GATS2i;GATS3i;BCUTc-1h;BCUTc-1l;BCUTdv-1h;BCUTdv-1l;BCUTd-1h;BCUTd-1l;BCUTs-1h;BCUTs-1l;BCUTZ-1h;BCUTZ-1l;BCUTm-1h;BCUTm-1l;BCUTv-1h;BCUTv-1l;BCUTse-1h;BCUTse-1l;BCUTpe-1h;BCUTpe-1l;BCUTare-1h;BCUTare-1l;BCUTp-1h;BCUTp-1l;BCUTi-1h;BCUTi-1l;BalabanJ;SpAbs_DzZ;SpMax_DzZ;SpDiam_DzZ;SpAD_DzZ;SpMAD_DzZ;LogEE_DzZ;VE1_DzZ;VE2_DzZ;VE3_DzZ;VR1_DzZ;VR2_DzZ;VR3_DzZ;SpAbs_Dzm;SpMax_Dzm;SpDiam_Dzm;SpAD_Dzm;SpMAD_Dzm;LogEE_Dzm;VE1_Dzm;VE2_Dzm;VE3_Dzm;VR1_Dzm;VR2_Dzm;VR3_Dzm;SpAbs_Dzv;SpMax_Dzv;SpDiam_Dzv;SpAD_Dzv;SpMAD_Dzv;LogEE_Dzv;VE1_Dzv;VE2_Dzv;VE3_Dzv;VR1_Dzv;VR2_Dzv;VR3_Dzv;SpAbs_Dzse;SpMax_Dzse;SpDiam_Dzse;SpAD_Dzse;SpMAD_Dzse;LogEE_Dzse;VE1_Dzse;VE2_Dzse;VE3_Dzse;VR1_Dzse;VR2_Dzse;VR3_Dzse;SpAbs_Dzpe;SpMax_Dzpe;SpDiam_Dzpe;SpAD_Dzpe;SpMAD_Dzpe;LogEE_Dzpe;VE1_Dzpe;VE2_Dzpe;VE3_Dzpe;VR1_Dzpe;VR2_Dzpe;VR3_Dzpe;SpAbs_Dzare;SpMax_Dzare;SpDiam_Dzare;SpAD_Dzare;SpMAD_Dzare;LogEE_Dzare;VE1_Dzare;VE2_Dzare;VE3_Dzare;VR1_Dzare;VR2_Dzare;VR3_Dzare;SpAbs_Dzp;SpMax_Dzp;SpDiam_Dzp;SpAD_Dzp;SpMAD_Dzp;LogEE_Dzp;VE1_Dzp;VE2_Dzp;VE3_Dzp;VR1_Dzp;VR2_Dzp;VR3_Dzp;SpAbs_Dzi;SpMax_Dzi;SpDiam_Dzi;SpAD_Dzi;SpMAD_Dzi;LogEE_Dzi;VE1_Dzi;VE2_Dzi;VE3_Dzi;VR1_Dzi;VR2_Dzi;VR3_Dzi;BertzCT;nBonds;nBondsO;nBondsS;nBondsKS;RNCG;RPCG;C1SP3;C2SP3;C3SP3;C4SP3;Xc-3d;Xc-4d;Xc-5d;Xc-6d;Xc-3dv;Xc-4dv;Xc-5dv;Xc-6dv;Xpc-4d;Xpc-5d;Xpc-6d;Xpc-4dv;Xpc-5dv;Xpc-6dv;Xp-0d;Xp-1d;Xp-2d;Xp-3d;Xp-4d;Xp-5d;Xp-6d;Xp-7d;AXp-0d;AXp-1d;Xp-0dv;Xp-1dv;Xp-2dv;Xp-3dv;Xp-4dv;Xp-5dv;Xp-6dv;Xp-7dv;AXp-0dv;AXp-1dv;SZ;Sm;Sv;Sse;Spe;Sare;Sp;Si;MZ;Mm;Mv;Mse;Mpe;Mare;Mp;Mi;SpAbs_D;SpMax_D;SpDiam_D;SpAD_D;SpMAD_D;LogEE_D;VE1_D;VE2_D;VE3_D;VR1_D;VR2_D;VR3_D;NsCH3;NssCH2;NsssCH;NssssC;SsCH3;SssCH2;SsssCH;SssssC;MAXsCH3;MINsCH3;ECIndex;ETA_alpha;ETA_shape_p;ETA_shape_y;ETA_shape_x;ETA_beta;AETA_beta;ETA_beta_s;AETA_beta_s;ETA_eta;AETA_eta;ETA_eta_L;AETA_eta_L;ETA_eta_R;AETA_eta_R;ETA_eta_RL;AETA_eta_RL;ETA_eta_B;AETA_eta_B;ETA_eta_BR;AETA_eta_BR;ETA_epsilon_1;ETA_epsilon_2;ETA_epsilon_3;ETA_epsilon_4;ETA_epsilon_5;ETA_dBeta;AETA_dBeta;ETA_psi_1;ETA_dPsi_B;fragCpx;IC0;IC1;IC2;IC3;IC4;IC5;TIC0;TIC1;TIC2;TIC3;TIC4;TIC5;SIC0;SIC1;SIC2;SIC3;SIC4;SIC5;BIC0;BIC1;BIC2;BIC3;BIC4;BIC5;CIC0;CIC1;CIC2;CIC3;CIC4;CIC5;MIC0;MIC1;MIC2;MIC3;MIC4;MIC5;ZMIC0;ZMIC1;ZMIC2;ZMIC3;ZMIC4;ZMIC5;Kier1;Lipinski;GhoseFilter;FilterItLogS;VMcGowan;LabuteASA;PEOE_VSA6;PEOE_VSA7;SMR_VSA4;SMR_VSA5;SlogP_VSA4;SlogP_VSA5;EState_VSA3;EState_VSA4;EState_VSA5;EState_VSA7;EState_VSA8;VSA_EState4;VSA_EState5;VSA_EState7;VSA_EState8;MDEC-11;MID;AMID;MID_C;AMID_C;MPC2;MPC3;MPC4;MPC5;MPC6;MPC7;MPC8;MPC9;MPC10;TMPC10;piPC1;piPC2;piPC3;piPC4;piPC5;piPC6;piPC7;piPC8;piPC9;piPC10;TpiPC10;apol;bpol;nRot;RotRatio;SLogP;SMR;GGI1;GGI2;GGI3;GGI4;GGI5;GGI6;GGI7;GGI8;GGI9;GGI10;JGI1;JGI2;JGI3;JGI4;JGI5;JGI6;JGI7;JGI8;JGI9;JGI10;JGT10;Diameter;Radius;TopoShapeIndex;PetitjeanIndex;Vabc;VAdjMat;MWC01;MWC02;MWC03;MWC04;MWC05;MWC06;MWC07;MWC08;MWC09;MWC10;TMWC10;SRW02;SRW04;SRW06;SRW08;SRW10;TSRW10;MW;AMW;WPath;WPol;Zagreb1;Zagreb2;mZagreb1;mZagreb2
117.7;CCC(C)C(C)CC;3,4-dimethylhexane;RNTWWGNZUXGTAX-UHFFFAOYSA-N;9.331737161808409;2.0952939852239147;4.1905879704478295;9.331737161808409;1.166467145226051;2.9008381133807397;2.5950822635611175;0.3243852829451397;0.7304746655954476;20.490743505614404;2.5613429382018005;2.7968296965454424;26.0;8.0;18.0;8.0;30.0;31.0;28.0;17.0;6.0;1.0;0.0;0.0;0.0;48.0;57.0;100.0;112.0;96.0;78.0;36.0;9.0;0.0;42.05555555555556;49.77777777777778;74.66666666666666;97.91666666666666;112.99999999999999;94.0;42.0;9.0;0.0;306.0;360.0;458.0;503.0;412.0;217.0;66.0;9.0;0.0;1172.4021199999997;1227.7764309999998;1483.122152;1564.9092559999997;1089.7897959999996;460.4071929999999;103.12444799999999;9.144576;0.0;3947.6426137513827;5029.877406914644;6806.459661661145;7774.633059762629;7153.87710588411;4470.825939016323;1620.9320311510196;279.75369987837234;0.0;181.25648000000004;180.90098799999998;339.441056;442.613024;502.984336;493.33315600000003;244.259712;60.466176;0.0;139.14000000000001;146.4975;265.64;342.86;385.93000000000006;367.0825;178.86;43.56000000000001;0.0;137.12;142.75;260.76;337.31999999999994;380.52;364.41;178.20000000000005;43.56000000000001;0.0;30.314232287281996;39.56609758;57.487932727886005;68.170714731527;68.14653373577201;49.07290715760101;20.01965300547;4.001516143640999;0.0;4342.872585156481;3643.7663514622;7584.388217594887;10167.382372090527;11809.773589554974;12556.455354962001;6466.26484700487;1664.2588682182407;0.0;1.1538461538461537;1.24;0.5833333333333334;0.2698412698412698;1.8461538461538463;2.28;2.0833333333333335;1.7777777777777777;1.6175213675213675;1.991111111111111;1.5555555555555554;1.5542328042328042;11.76923076923077;14.4;9.541666666666666;7.984126984126984;45.09238923076922;49.111057239999994;30.898378166666664;24.839829460317457;151.83240822120703;201.19509627658576;141.80124295127385;123.40687396448618;6.971403076923078;7.236039519999999;7.071688666666667;7.025603555555556;5.351538461538462;5.8599;5.534166666666667;5.442222222222222;5.273846153846154;5.71;5.4325;5.354285714285713;1.1659320110493074;1.5826439032;1.1976652651642918;1.082074837008365;167.03356096755698;145.750654058488;158.00808786656015;161.38702177921473;0.03656750235268551;-0.007534655949599925;-0.004515230343933757;0.00149398314508579;-0.021812217897378534;0.0012608330760125169;0.008043697064969537;0.004779839728501618;0.0;22.461538461538467;8.094674556213022;-6.54437869822485;-16.42603550295858;-11.893491124260358;5.721893491124257;7.2071005917159745;2.609467455621302;0.0;8.615384615384617;3.7928994082840233;-4.5207100591715985;-6.721893491124262;-1.7041420118343185;2.4497041420118366;1.9171597633136108;0.47928994082840265;0.0;3.4871794871794877;-1.6415187376725828;-0.284023668639053;1.3708086785009868;-1.8619329388560149;-0.15680473372781178;0.40236686390532445;0.42751479289940786;0.0;138.46153846153845;-11.982248520710046;-9.467455621301765;-20.118343195266263;-98.81656804733728;10.798816568047329;39.05325443786981;21.301775147928993;0.0;670.5194344615384;-58.02572028994065;-45.84748269822466;-97.42590073372767;-478.53310066272184;52.29478495266243;189.12086613017732;103.15683607100584;0.0;1246.8595205864642;-107.90130466613647;-85.25535183497205;-181.16762264931543;-889.8527347775192;97.24438568676506;351.67832631925927;191.82454162868683;0.0;0.13135015384615373;-0.01136684023668524;-0.008981207100590853;-0.019085065088756743;-0.09374134911242568;0.010244189349111029;0.03704747928993968;0.02020771597633096;0.0;0.6784615384615371;-0.05871301775148015;-0.04639053254437936;-0.0985798816568051;-0.48420118343195184;0.05291420118343309;0.19136094674556273;0.10437869822485218;0.0;0.49846153846153785;-0.04313609467455702;-0.03408284023668699;-0.07242603550295897;-0.355739644970414;0.0388757396449714;0.14059171597633202;0.07668639053254457;0.0;5.574042193009846;-0.4823690359335449;-0.38113109012033175;-0.8099035665057045;-3.978055753130958;0.4347276496685035;1.5721657467463672;0.8575449527707456;0.0;30.278285659102124;-2.620236258960829;-2.0703101305369493;-4.399409027390945;-21.608861987478882;2.361447492643733;8.540029288464767;4.658197793708041;0.0;0.0014064423981802118;-0.000301386237983997;-9.406729883195326e-05;2.3714018175964918e-05;0.8639053254437872;0.32378698224852087;-0.1363412228796844;-0.2607307222691838;0.33136094674556216;0.15171597633136094;-0.09418145956607497;-0.10669672208133749;0.13412228796844183;-0.06566074950690332;-0.005917159763313604;0.021758867912714076;5.325443786982248;-0.4792899408284018;-0.1972386587771201;-0.31933878087724227;25.789209017751475;-2.321028811597626;-0.9551558895463471;-1.5464428687893281;47.9561354071717;-4.316052186645459;-1.7761531632285843;-2.8756765499891337;0.005051928994082836;-0.0004546736094674096;-0.00018710848126230945;-0.00030293754109137687;0.026094674556212966;-0.002348520710059206;-0.0009664694280079033;-0.0015647600262984937;0.01917159763313607;-0.0017254437869822809;-0.0007100591715976457;-0.0011496196111580787;0.21438623819268637;-0.019294761437341795;-0.007940231044173579;-0.012855612166757215;1.1645494484270047;-0.10480945035843316;-0.043131461052853114;-0.0698318893236658;-0.2142897841916306;-0.06688315067411679;0.016860994951978382;0.3747945205479453;-0.1578196347031963;-0.30180474016090447;-0.4895588235294114;-0.044117647058823484;0.16223155929038288;-0.0899999999999999;-0.037037037037037;-0.05996472663139327;-0.08999999999999975;-0.03703703703703689;-0.05996472663139322;-0.09000000000000012;-0.0370370370370371;-0.05996472663139334;-0.08999999999999098;-0.03703703703703352;-0.0599647266313913;-0.09000000000000151;-0.03703703703703764;-0.059964726631393635;-0.0900000000000018;-0.037037037037037736;-0.05996472663139368;-0.0900000000000001;-0.037037037037037084;-0.05996472663139333;-0.09000000000000234;-0.03703703703703797;-0.05996472663139382;1.749768836561016;1.1175866556580623;1.0183317465682147;1.2910958904109586;1.9245861872146115;1.7136877582083059;2.102941176470588;0.8712469362745097;0.7491538281979457;1.625;1.222511574074074;1.146384479717813;1.6250000000000007;1.2225115740740744;1.1463844797178133;1.6249999999999998;1.2225115740740737;1.1463844797178129;1.625;1.2225115740740737;1.1463844797178129;1.6249999999999998;1.222511574074074;1.1463844797178129;1.6250000000000002;1.2225115740740742;1.146384479717813;1.6250000000000002;1.2225115740740744;1.146384479717813;1.625;1.2225115740740742;1.146384479717813;0.21622986490055057;-0.22196554749957062;3.115074158844211;0.9871322689517005;3.115074158844211;0.9871322689517005;2.0308348910574354;1.185887491412816;6.221235685518239;5.783645209851376;12.232235685518248;11.794645209851375;20.800761961633736;20.3631714859669;2.9672356855182396;2.5296452098513775;2.7712356855182407;2.3336452098513782;2.7212356855182427;2.283645209851381;1.8912356855182415;1.4536452098513761;11.481535685518246;11.043945209851385;3.292478156075495;35.35173963576362;17.67586981788181;25.647730671582757;35.35173963576362;4.418967454470453;17.675869880002168;2.7798750580896003;0.34748438226120004;0.7992624322451258;22.596667804225408;2.824583475528176;2.8946589018024365;35.35173963576362;17.67586981788181;25.647730671582757;35.35173963576362;4.418967454470453;17.675869880002168;2.7798750580896003;0.34748438226120004;0.7992624322451258;22.596667804225408;2.824583475528176;2.8946589018024365;35.35173963576362;17.67586981788181;25.647730671582757;35.35173963576362;4.418967454470453;17.675869880002168;2.7798750580896003;0.34748438226120004;0.7992624322451258;22.596667804225408;2.824583475528176;2.8946589018024365;35.35173963576362;17.67586981788181;25.647730671582757;35.35173963576362;4.418967454470453;17.675869880002168;2.7798750580896003;0.34748438226120004;0.7992624322451258;22.596667804225408;2.824583475528176;2.8946589018024365;35.35173963576362;17.67586981788181;25.647730671582757;35.35173963576362;4.418967454470453;17.675869880002168;2.7798750580896003;0.34748438226120004;0.7992624322451258;22.596667804225408;2.824583475528176;2.8946589018024365;35.35173963576362;17.67586981788181;25.647730671582757;35.35173963576362;4.418967454470453;17.675869880002168;2.7798750580896003;0.34748438226120004;0.7992624322451258;22.596667804225408;2.824583475528176;2.8946589018024365;35.35173963576362;17.67586981788181;25.647730671582757;35.35173963576362;4.418967454470453;17.675869880002168;2.7798750580896003;0.34748438226120004;0.7992624322451258;22.596667804225408;2.824583475528176;2.8946589018024365;35.35173963576362;17.67586981788181;25.647730671582757;35.35173963576362;4.418967454470453;17.675869880002168;2.7798750580896003;0.34748438226120004;0.7992624322451258;22.596667804225408;2.824583475528176;2.8946589018024365;40.0;25.0;7.0;25.0;25.0;0.14621767593293664;0.06792049576915171;4.0;2.0;2.0;0.0;0.4714045207910317;0.0;0.16666666666666666;0.0;0.4714045207910317;0.0;0.16666666666666666;0.0;1.2761423749153968;1.1380711874576983;0.6666666666666666;1.2761423749153968;1.1380711874576983;0.6666666666666666;6.568914100752346;3.718744015013406;2.7710643493131504;2.2593056225097894;0.804737854124365;0.16666666666666666;0.0;0.0;0.8211142625940433;0.5312491450019151;6.568914100752346;3.718744015013406;2.7710643493131504;2.2593056225097894;0.804737854124365;0.16666666666666666;0.0;0.0;0.8211142625940433;0.5312491450019151;11.0;9.510615269336444;12.87645023407287;24.990531682447198;23.529411764705884;23.84;15.186990419161678;29.737606813317583;0.4230769230769231;0.36579289497447864;0.4952480859258796;0.9611742954787383;0.904977375565611;0.916923076923077;0.584115016121603;1.1437541082045224;35.35173963576362;17.67586981788181;25.647730671582757;35.35173963576362;4.418967454470453;17.675869880002168;2.7798750580896003;0.34748438226120004;0.7992624322451258;22.596667804225408;2.824583475528176;2.8946589018024365;4.0;2.0;2.0;0.0;9.176574074074075;2.6567592592592595;1.833333333333333;0.0;2.3275462962962963;2.260740740740741;52.0;4.0;0.5;0.25;0.0;3.5;0.4375;3.5;0.4375;9.065324382553792;1.133165547819224;3.7187440150134057;0.4648430018766757;9.065324382553792;1.133165547819224;3.7187440150134057;0.4648430018766757;0.19546954735968924;0.024433693419961156;0.19546954735968924;0.024433693419961156;0.4230769230769231;0.7;0.4230769230769231;0.4230769230769231;0.7;-3.5;-0.4375;0.7142857142857143;0.00028571428571433355;7.0;0.8904916402194913;1.3520301017579528;2.353533948577482;2.8150724101159437;2.8150724101159437;2.8150724101159437;23.152782645706775;35.15278264570677;61.19188266301453;73.19188266301454;73.19188266301454;73.19188266301454;0.1894485821789581;0.2876390684343565;0.5007050594637232;0.5988955457191217;0.5988955457191217;0.5988955457191217;0.19175693730143042;0.29114383531836724;0.5068059501411161;0.606192848158053;0.606192848158053;0.606192848158053;3.8099480779216;3.348409616383139;2.3469057695636097;1.885367308025148;1.885367308025148;1.885367308025148;6.654519640635535;12.198058102173997;14.900343210537313;15.365573979768083;15.365573979768083;15.365573979768083;31.72521615294554;23.41346490856623;22.07229717741683;21.75251411379239;21.75251411379239;21.75251411379239;8.0;1.0;0.0;-2.278202200549686;123.58000000000004;53.293845828605804;40.53659204461451;11.835812092322787;11.835812092322787;40.53659204461451;11.835812092322787;40.53659204461451;0.0;11.835812092322787;12.841643245852019;0.0;27.694948798762496;0.0;1.833333333333333;2.6567592592592595;9.176574074074075;1.6688179349970051;14.491605750444004;1.8114507188055005;14.491605750444004;1.8114507188055005;8.0;8.0;4.0;1.0;0.0;0.0;0.0;0.0;0.0;36.0;2.0794415416798357;2.1972245773362196;2.1972245773362196;1.6094379124341003;0.6931471805599453;0.0;0.0;0.0;0.0;0.0;3.6109179126442243;25.362274;18.057726;3.0;0.42857142857142855;3.0786000000000016;38.91;2.0;1.333333333333334;0.375;0.08000000000000002;0.0;0.0;0.0;0.0;0.0;0.0;0.2857142857142857;0.16666666666666674;0.046875;0.020000000000000004;0.0;0.0;0.0;0.0;0.0;0.0;0.5192559523809525;5.0;3.0;0.6666666666666666;0.4;146.92434073860016;3.807354922057604;7.0;3.4339872044851463;4.143134726391533;4.875197323201151;5.60947179518496;6.3473892096560105;7.085901464365611;7.8252452914317745;8.564649132572534;9.30428598481871;72.18926213210743;2.70805020110221;3.8501476017100584;5.209486152841421;6.642486801367256;8.103191752285786;34.51336250930673;114.14085057599999;4.3900327144615385;68.0;8.0;30.0;31.0;4.722222222222222;2.111111111111111