boiling_point;SMILES;IUPAC_name;InChIKey;SpAbs_A;SpMax_A;SpDiam_A;SpAD_A;SpMAD_A;LogEE_A;VE1_A;VE2_A;VE3_A;VR1_A;VR2_A;VR3_A;nAtom;nHeavyAtom;nH;nC;ATS0dv;ATS1dv;ATS2dv;ATS3dv;ATS4dv;ATS5dv;ATS6dv;ATS7dv;ATS8dv;ATS0d;ATS1d;ATS2d;ATS3d;ATS4d;ATS5d;ATS6d;ATS7d;ATS8d;ATS0s;ATS1s;ATS2s;ATS3s;ATS4s;ATS5s;ATS6s;ATS7s;ATS8s;ATS0Z;ATS1Z;ATS2Z;ATS3Z;ATS4Z;ATS5Z;ATS6Z;ATS7Z;ATS8Z;ATS0m;ATS1m;ATS2m;ATS3m;ATS4m;ATS5m;ATS6m;ATS7m;ATS8m;ATS0v;ATS1v;ATS2v;ATS3v;ATS4v;ATS5v;ATS6v;ATS7v;ATS8v;ATS0se;ATS1se;ATS2se;ATS3se;ATS4se;ATS5se;ATS6se;ATS7se;ATS8se;ATS0pe;ATS1pe;ATS2pe;ATS3pe;ATS4pe;ATS5pe;ATS6pe;ATS7pe;ATS8pe;ATS0are;ATS1are;ATS2are;ATS3are;ATS4are;ATS5are;ATS6are;ATS7are;ATS8are;ATS0p;ATS1p;ATS2p;ATS3p;ATS4p;ATS5p;ATS6p;ATS7p;ATS8p;ATS0i;ATS1i;ATS2i;ATS3i;ATS4i;ATS5i;ATS6i;ATS7i;ATS8i;AATS0dv;AATS1dv;AATS2dv;AATS3dv;AATS0d;AATS1d;AATS2d;AATS3d;AATS0s;AATS1s;AATS2s;AATS3s;AATS0Z;AATS1Z;AATS2Z;AATS3Z;AATS0m;AATS1m;AATS2m;AATS3m;AATS0v;AATS1v;AATS2v;AATS3v;AATS0se;AATS1se;AATS2se;AATS3se;AATS0pe;AATS1pe;AATS2pe;AATS3pe;AATS0are;AATS1are;AATS2are;AATS3are;AATS0p;AATS1p;AATS2p;AATS3p;AATS0i;AATS1i;AATS2i;AATS3i;ATSC0c;ATSC1c;ATSC2c;ATSC3c;ATSC4c;ATSC5c;ATSC6c;ATSC7c;ATSC8c;ATSC0dv;ATSC1dv;ATSC2dv;ATSC3dv;ATSC4dv;ATSC5dv;ATSC6dv;ATSC7dv;ATSC8dv;ATSC0d;ATSC1d;ATSC2d;ATSC3d;ATSC4d;ATSC5d;ATSC6d;ATSC7d;ATSC8d;ATSC0s;ATSC1s;ATSC2s;ATSC3s;ATSC4s;ATSC5s;ATSC6s;ATSC7s;ATSC8s;ATSC0Z;ATSC1Z;ATSC2Z;ATSC3Z;ATSC4Z;ATSC5Z;ATSC6Z;ATSC7Z;ATSC8Z;ATSC0m;ATSC1m;ATSC2m;ATSC3m;ATSC4m;ATSC5m;ATSC6m;ATSC7m;ATSC8m;ATSC0v;ATSC1v;ATSC2v;ATSC3v;ATSC4v;ATSC5v;ATSC6v;ATSC7v;ATSC8v;ATSC0se;ATSC1se;ATSC2se;ATSC3se;ATSC4se;ATSC5se;ATSC6se;ATSC7se;ATSC8se;ATSC0pe;ATSC1pe;ATSC2pe;ATSC3pe;ATSC4pe;ATSC5pe;ATSC6pe;ATSC7pe;ATSC8pe;ATSC0are;ATSC1are;ATSC2are;ATSC3are;ATSC4are;ATSC5are;ATSC6are;ATSC7are;ATSC8are;ATSC0p;ATSC1p;ATSC2p;ATSC3p;ATSC4p;ATSC5p;ATSC6p;ATSC7p;ATSC8p;ATSC0i;ATSC1i;ATSC2i;ATSC3i;ATSC4i;ATSC5i;ATSC6i;ATSC7i;ATSC8i;AATSC0c;AATSC1c;AATSC2c;AATSC3c;AATSC0dv;AATSC1dv;AATSC2dv;AATSC3dv;AATSC0d;AATSC1d;AATSC2d;AATSC3d;AATSC0s;AATSC1s;AATSC2s;AATSC3s;AATSC0Z;AATSC1Z;AATSC2Z;AATSC3Z;AATSC0m;AATSC1m;AATSC2m;AATSC3m;AATSC0v;AATSC1v;AATSC2v;AATSC3v;AATSC0se;AATSC1se;AATSC2se;AATSC3se;AATSC0pe;AATSC1pe;AATSC2pe;AATSC3pe;AATSC0are;AATSC1are;AATSC2are;AATSC3are;AATSC0p;AATSC1p;AATSC2p;AATSC3p;AATSC0i;AATSC1i;AATSC2i;AATSC3i;MATS1c;MATS2c;MATS3c;MATS1dv;MATS2dv;MATS3dv;MATS1s;MATS2s;MATS3s;MATS1Z;MATS2Z;MATS3Z;MATS1m;MATS2m;MATS3m;MATS1v;MATS2v;MATS3v;MATS1se;MATS2se;MATS3se;MATS1pe;MATS2pe;MATS3pe;MATS1are;MATS2are;MATS3are;MATS1p;MATS2p;MATS3p;MATS1i;MATS2i;MATS3i;GATS1c;GATS2c;GATS3c;GATS1dv;GATS2dv;GATS3dv;GATS1s;GATS2s;GATS3s;GATS1Z;GATS2Z;GATS3Z;GATS1m;GATS2m;GATS3m;GATS1v;GATS2v;GATS3v;GATS1se;GATS2se;GATS3se;GATS1pe;GATS2pe;GATS3pe;GATS1are;GATS2are;GATS3are;GATS1p;GATS2p;GATS3p;GATS1i;GATS2i;GATS3i;BCUTc-1h;BCUTc-1l;BCUTdv-1h;BCUTdv-1l;BCUTd-1h;BCUTd-1l;BCUTs-1h;BCUTs-1l;BCUTZ-1h;BCUTZ-1l;BCUTm-1h;BCUTm-1l;BCUTv-1h;BCUTv-1l;BCUTse-1h;BCUTse-1l;BCUTpe-1h;BCUTpe-1l;BCUTare-1h;BCUTare-1l;BCUTp-1h;BCUTp-1l;BCUTi-1h;BCUTi-1l;BalabanJ;SpAbs_DzZ;SpMax_DzZ;SpDiam_DzZ;SpAD_DzZ;SpMAD_DzZ;LogEE_DzZ;VE1_DzZ;VE2_DzZ;VE3_DzZ;VR1_DzZ;VR2_DzZ;VR3_DzZ;SpAbs_Dzm;SpMax_Dzm;SpDiam_Dzm;SpAD_Dzm;SpMAD_Dzm;LogEE_Dzm;VE1_Dzm;VE2_Dzm;VE3_Dzm;VR1_Dzm;VR2_Dzm;VR3_Dzm;SpAbs_Dzv;SpMax_Dzv;SpDiam_Dzv;SpAD_Dzv;SpMAD_Dzv;LogEE_Dzv;VE1_Dzv;VE2_Dzv;VE3_Dzv;VR1_Dzv;VR2_Dzv;VR3_Dzv;SpAbs_Dzse;SpMax_Dzse;SpDiam_Dzse;SpAD_Dzse;SpMAD_Dzse;LogEE_Dzse;VE1_Dzse;VE2_Dzse;VE3_Dzse;VR1_Dzse;VR2_Dzse;VR3_Dzse;SpAbs_Dzpe;SpMax_Dzpe;SpDiam_Dzpe;SpAD_Dzpe;SpMAD_Dzpe;LogEE_Dzpe;VE1_Dzpe;VE2_Dzpe;VE3_Dzpe;VR1_Dzpe;VR2_Dzpe;VR3_Dzpe;SpAbs_Dzare;SpMax_Dzare;SpDiam_Dzare;SpAD_Dzare;SpMAD_Dzare;LogEE_Dzare;VE1_Dzare;VE2_Dzare;VE3_Dzare;VR1_Dzare;VR2_Dzare;VR3_Dzare;SpAbs_Dzp;SpMax_Dzp;SpDiam_Dzp;SpAD_Dzp;SpMAD_Dzp;LogEE_Dzp;VE1_Dzp;VE2_Dzp;VE3_Dzp;VR1_Dzp;VR2_Dzp;VR3_Dzp;SpAbs_Dzi;SpMax_Dzi;SpDiam_Dzi;SpAD_Dzi;SpMAD_Dzi;LogEE_Dzi;VE1_Dzi;VE2_Dzi;VE3_Dzi;VR1_Dzi;VR2_Dzi;VR3_Dzi;BertzCT;nBonds;nBondsO;nBondsS;nBondsKS;RNCG;RPCG;C1SP3;C2SP3;C3SP3;C4SP3;Xc-3d;Xc-4d;Xc-5d;Xc-6d;Xc-3dv;Xc-4dv;Xc-5dv;Xc-6dv;Xpc-4d;Xpc-5d;Xpc-6d;Xpc-4dv;Xpc-5dv;Xpc-6dv;Xp-0d;Xp-1d;Xp-2d;Xp-3d;Xp-4d;Xp-5d;Xp-6d;Xp-7d;AXp-0d;AXp-1d;Xp-0dv;Xp-1dv;Xp-2dv;Xp-3dv;Xp-4dv;Xp-5dv;Xp-6dv;Xp-7dv;AXp-0dv;AXp-1dv;SZ;Sm;Sv;Sse;Spe;Sare;Sp;Si;MZ;Mm;Mv;Mse;Mpe;Mare;Mp;Mi;SpAbs_D;SpMax_D;SpDiam_D;SpAD_D;SpMAD_D;LogEE_D;VE1_D;VE2_D;VE3_D;VR1_D;VR2_D;VR3_D;NsCH3;NssCH2;NsssCH;NssssC;SsCH3;SssCH2;SsssCH;SssssC;MAXsCH3;MINsCH3;ECIndex;ETA_alpha;ETA_shape_p;ETA_shape_y;ETA_shape_x;ETA_beta;AETA_beta;ETA_beta_s;AETA_beta_s;ETA_eta;AETA_eta;ETA_eta_L;AETA_eta_L;ETA_eta_R;AETA_eta_R;ETA_eta_RL;AETA_eta_RL;ETA_eta_B;AETA_eta_B;ETA_eta_BR;AETA_eta_BR;ETA_epsilon_1;ETA_epsilon_2;ETA_epsilon_3;ETA_epsilon_4;ETA_epsilon_5;ETA_dBeta;AETA_dBeta;ETA_psi_1;ETA_dPsi_B;fragCpx;IC0;IC1;IC2;IC3;IC4;IC5;TIC0;TIC1;TIC2;TIC3;TIC4;TIC5;SIC0;SIC1;SIC2;SIC3;SIC4;SIC5;BIC0;BIC1;BIC2;BIC3;BIC4;BIC5;CIC0;CIC1;CIC2;CIC3;CIC4;CIC5;MIC0;MIC1;MIC2;MIC3;MIC4;MIC5;ZMIC0;ZMIC1;ZMIC2;ZMIC3;ZMIC4;ZMIC5;Kier1;Lipinski;GhoseFilter;FilterItLogS;VMcGowan;LabuteASA;PEOE_VSA6;PEOE_VSA7;SMR_VSA4;SMR_VSA5;SlogP_VSA4;SlogP_VSA5;EState_VSA3;EState_VSA4;EState_VSA5;EState_VSA7;EState_VSA8;VSA_EState4;VSA_EState5;VSA_EState7;VSA_EState8;MDEC-11;MID;AMID;MID_C;AMID_C;MPC2;MPC3;MPC4;MPC5;MPC6;MPC7;MPC8;MPC9;MPC10;TMPC10;piPC1;piPC2;piPC3;piPC4;piPC5;piPC6;piPC7;piPC8;piPC9;piPC10;TpiPC10;apol;bpol;nRot;RotRatio;SLogP;SMR;GGI1;GGI2;GGI3;GGI4;GGI5;GGI6;GGI7;GGI8;GGI9;GGI10;JGI1;JGI2;JGI3;JGI4;JGI5;JGI6;JGI7;JGI8;JGI9;JGI10;JGT10;Diameter;Radius;TopoShapeIndex;PetitjeanIndex;Vabc;VAdjMat;MWC01;MWC02;MWC03;MWC04;MWC05;MWC06;MWC07;MWC08;MWC09;MWC10;TMWC10;SRW02;SRW04;SRW06;SRW08;SRW10;TSRW10;MW;AMW;WPath;WPol;Zagreb1;Zagreb2;mZagreb1;mZagreb2
470.0;CCCCCCCCCCCCCCCCCCCCCCCCCCCCCCCC;dotriacontane;QHMGJGNTMQDRQA-UHFFFAOYSA-N;40.03277580097028;1.9909438451461694;3.9818876902923384;40.03277580097027;1.251024243780321;4.283091532954127;5.168016795542519;0.1615005248607037;2.805639826192179;261.54920964465737;8.173412801395543;6.729773257804152;98.0;32.0;66.0;32.0;122.0;120.0;116.0;112.0;108.0;104.0;100.0;96.0;92.0;188.0;246.0;400.0;480.0;464.0;448.0;432.0;416.0;400.0;141.5;173.25;296.0;379.75;367.5;355.25;343.0;330.75;318.5;1218.0;1512.0;1872.0;1904.0;1840.0;1776.0;1712.0;1648.0;1584.0;4683.512096000002;5271.255558999998;5889.995021999998;5790.780436999999;5594.023707999999;5397.266978999998;5200.510249999999;5003.753520999999;4806.996791999999;15604.067988419945;20701.640634683452;28281.335514678725;30258.576635092908;29251.778290137783;28244.979945182655;27238.18160022753;26231.383255272405;25224.58491031728;684.7151359999999;703.519708;1364.901816;1946.9894600000002;1884.1045600000002;1821.2196600000002;1758.3347600000002;1695.4498600000002;1632.5649600000002;527.5200000000002;571.8375;1076.1750000000002;1492.5124999999998;1444.21;1395.9074999999998;1347.605;1299.3024999999998;1251.0;519.4400000000002;556.75;1054.7400000000002;1471.77;1424.16;1376.55;1328.94;1281.3300000000002;1233.7200000000003;118.58925172003401;159.94982446;239.979647634564;273.640957640672;264.619428781276;255.59789992187999;246.576371062484;237.554842203088;228.533313343692;16261.984428480437;14036.713187841402;29754.307167398365;46027.44660668768;44548.49145164908;43069.53629661049;41590.581141571885;40111.62598653329;38632.67083149469;1.2448979591836735;1.2371134020618557;0.6041666666666666;0.4014336917562724;1.9183673469387754;2.536082474226804;2.0833333333333335;1.7204301075268817;1.4438775510204083;1.7860824742268042;1.5416666666666667;1.3611111111111112;12.428571428571429;15.587628865979381;9.75;6.82437275985663;47.790939755102066;54.342840814432975;30.67705740624999;20.755485437275983;159.22518355530556;213.4189756152933;147.29862247228502;108.4536796956735;6.986889142857142;7.252780494845362;7.108863625000001;6.978456845878137;5.382857142857145;5.895231958762887;5.605078125000001;5.34950716845878;5.300408163265308;5.739690721649485;5.4934375000000015;5.275161290322581;1.2100944053064695;1.6489672624742269;1.2498939980966874;0.9807919628697922;165.93861661714732;144.70838337980828;154.9703498301998;164.9729269056906;0.1402259101742651;-0.004436660402071272;-0.06840002797980274;-0.00011355071454189052;-4.1719835400411565e-06;-7.018372846605281e-08;-5.563234067211889e-10;-2.114817652595913e-12;-3.878841692284141e-15;82.77551020408158;1.9262807163681792;-38.70304039983341;-0.28946272386505667;-0.29987505206164156;-0.3102873802582261;-0.32069970845481066;-0.33111203665139566;-0.34152436484798043;20.81632653061225;1.3552686380674788;-9.109537692628063;-0.11995002082465604;-0.12661391087047041;-0.13327780091628472;-0.13994169096209902;-0.14660558100791332;-0.15326947105372757;6.551020408163266;-0.6270304039983369;-2.8754685547688483;0.012911286963765395;0.012494793835901977;0.012078300708038614;0.011661807580175237;0.011245314452311875;0.010828821324448443;538.7755102040815;-11.3390254060808;-256.5805914202416;-0.6976259891711765;-0.7080383173677607;-0.7184506455643462;-0.7288629737609305;-0.7392753019575156;-0.7496876301541029;2609.096030693878;-54.9108220745532;-1242.5275276043321;-3.3783517713452476;-3.4287749321115975;-3.4791980928779473;-3.529621253644276;-3.580044414410633;-3.630467575176972;4851.725481465696;-102.10901842370492;-2310.5329954058006;-6.282189379603437;-6.37595340019454;-6.469717420785635;-6.563481441376737;-6.657245461967818;-6.7510094825589135;0.5111039999999994;-0.010756653061215725;-0.24340261224488946;-0.000661795918367643;-0.0006716734693880677;-0.0006815510204084942;-0.0006914285714289181;-0.0007013061224493441;-0.0007111836734697671;2.6399999999999952;-0.05556122448977911;-1.2572448979591655;-0.003418367346939344;-0.0034693877551026445;-0.003520408163265945;-0.0035714285714292388;-0.0036224489795925324;-0.003673469387755826;1.9395918367346912;-0.04082049146187175;-0.9236901291128506;-0.002511453561016886;-0.002548937942524627;-0.0025864223240323683;-0.0026239067055401164;-0.002661391087047856;-0.0026988754685555918;21.689470302051912;-0.45647482140798734;-10.32915752905001;-0.028084309489746856;-0.028503478288101264;-0.0289226470864557;-0.02934181588481019;-0.029760984683164626;-0.030180153481519062;117.81754691841094;-2.479578474685348;-56.108147633802076;-0.1525544148796879;-0.15483134644505736;-0.15710827801042693;-0.15938520957579616;-0.1616621411411655;-0.16393907270653474;0.0014308766344312766;-4.57387670316626e-05;-0.00035625014572813926;-4.069918083938728e-07;0.844648063306955;0.01985856408626989;-0.20157833541579903;-0.0010375008023837157;0.2124114952103291;0.013971841629561638;-0.04744550881577116;-0.00042992839005253063;0.06684714702207414;-0.006464230969055019;-0.014976398722754419;4.6277014207044427e-05;5.4977092877967495;-0.11689716913485361;-1.336357246980425;-0.0025004515740902383;26.62342888463141;-0.5660909492221979;-6.471497539605896;-0.012108787710914866;49.50740287209894;-1.0526702930278857;-12.034026017738546;-0.0225168078121987;0.005215346938775504;-0.00011089333052799717;-0.0012677219387754659;-2.372028381246032e-06;0.026938775510204033;-0.0005727961287606094;-0.006548150510203987;-1.2252212713044243e-05;0.019791753436068277;-0.00042082980888527577;-0.004810886089129431;-9.00162566672719e-06;0.22132112553114197;-0.004705925993896777;-0.053797695463802135;-0.0001006606074901321;1.2022198665143973;-0.025562664687477813;-0.29222993559271915;-0.0005467900174899208;-0.03196555589143585;-0.2489733476357563;-0.0002844352885499719;0.023511051465056228;-0.23865364069691014;-0.0012283231886209582;-0.09670167325047414;-0.22403946002076858;0.0006922810661128576;-0.021262886597938152;-0.2430752840909092;-0.0004548169870750503;-0.0212628865979385;-0.24307528409090914;-0.0004548169870750481;-0.021262886597938322;-0.24307528409090923;-0.00045481698707504966;-0.021262886597920843;-0.24307528409090084;-0.0004548169870752555;-0.02126288659793175;-0.243075284090906;-0.000454816987075128;-0.02126288659792821;-0.24307528409090445;-0.00045481698707516865;-0.021262886597938475;-0.24307528409090934;-0.0004548169870750463;-0.021262886597933028;-0.24307528409090676;-0.00045481698707511135;1.5423081669603913;1.4686390226432462;0.9761860389349847;1.4980276134122297;1.5075287126068384;1.0038378472001306;1.640965732087227;1.3495830088265834;0.9022097164997375;1.5312500000000004;1.4768732244318186;0.9840780112957536;1.5312499999999996;1.476873224431818;0.9840780112957531;1.53125;1.4768732244318183;0.9840780112957532;1.53125;1.4768732244318183;0.9840780112957533;1.5312499999999996;1.4768732244318177;0.9840780112957529;1.5312500000000004;1.4768732244318186;0.9840780112957535;1.5312500000000004;1.4768732244318183;0.9840780112957536;1.5312500000000004;1.4768732244318186;0.9840780112957537;0.22654616610226816;-0.19817770884483726;2.2243928727220688;0.9871436102075705;2.2243928727220688;0.9871436102075705;2.025930827547352;1.3019892464443696;6.226625922908324;5.801841378168332;12.237625922908316;11.812841378168345;20.80615219902384;20.38136765428387;2.972625922908308;2.5478413781683322;2.7766259229083134;2.351841378168335;2.726625922908312;2.301841378168331;1.8966259229083091;1.4718413781683362;11.486925922908272;11.062141378168354;2.982953848041781;710.6956523389495;355.3478261694746;563.0203572854253;710.6956523389492;22.209239135592163;355.3478261694746;5.5589296448856;0.173716551402675;2.8785563896230983;186.150715896329;5.817209871760281;6.389707455920552;710.6956523389495;355.3478261694746;563.0203572854253;710.6956523389492;22.209239135592163;355.3478261694746;5.5589296448856;0.173716551402675;2.8785563896230983;186.150715896329;5.817209871760281;6.389707455920552;710.6956523389495;355.3478261694746;563.0203572854253;710.6956523389492;22.209239135592163;355.3478261694746;5.5589296448856;0.173716551402675;2.8785563896230983;186.150715896329;5.817209871760281;6.389707455920552;710.6956523389495;355.3478261694746;563.0203572854253;710.6956523389492;22.209239135592163;355.3478261694746;5.5589296448856;0.173716551402675;2.8785563896230983;186.150715896329;5.817209871760281;6.389707455920552;710.6956523389495;355.3478261694746;563.0203572854253;710.6956523389492;22.209239135592163;355.3478261694746;5.5589296448856;0.173716551402675;2.8785563896230983;186.150715896329;5.817209871760281;6.389707455920552;710.6956523389495;355.3478261694746;563.0203572854253;710.6956523389492;22.209239135592163;355.3478261694746;5.5589296448856;0.173716551402675;2.8785563896230983;186.150715896329;5.817209871760281;6.389707455920552;710.6956523389495;355.3478261694746;563.0203572854253;710.6956523389492;22.209239135592163;355.3478261694746;5.5589296448856;0.173716551402675;2.8785563896230983;186.150715896329;5.817209871760281;6.389707455920552;710.6956523389495;355.3478261694746;563.0203572854253;710.6956523389492;22.209239135592163;355.3478261694746;5.5589296448856;0.173716551402675;2.8785563896230983;186.150715896329;5.817209871760281;6.389707455920552;264.41343573651113;97.0;31.0;97.0;97.0;0.03765786600294006;0.015351147216587705;2.0;30.0;0.0;0.0;0.0;0.0;0.0;0.0;0.0;0.0;0.0;0.0;0.0;0.0;0.0;0.0;0.0;0.0;23.21320343559642;15.914213562373096;10.899494936611664;7.457106781186548;5.096194077712559;3.478553390593274;2.371320343559643;1.614276695296637;0.7254126073623881;0.513361727818487;23.21320343559642;15.914213562373096;10.899494936611664;7.457106781186548;5.096194077712559;3.478553390593274;2.371320343559643;1.614276695296637;0.7254126073623881;0.513361727818487;43.000000000000014;37.5389226542336;49.88031752493387;94.29861616897304;88.94117647058826;90.08000000000001;58.352298203592795;111.70455831549782;0.4387755102040818;0.383050231165649;0.5089828318870804;0.9622307772344187;0.9075630252100843;0.9191836734693879;0.5954316143223755;1.139842431790794;710.6956523389495;355.3478261694746;563.0203572854253;710.6956523389492;22.209239135592163;355.3478261694746;5.5589296448856;0.173716551402675;2.8785563896230983;186.150715896329;5.817209871760281;6.389707455920552;2.0;30.0;0.0;0.0;4.613190700327925;44.38680929967207;0.0;0.0;2.3065953501639624;2.306595350163962;1442.0;16.0;0.0625;0.0;0.0;15.5;0.484375;15.5;0.484375;50.60683001037559;1.5814634378242372;15.914213562373096;0.49731917382415924;50.60683001037559;1.5814634378242372;15.914213562373096;0.49731917382415924;0.0;0.0;0.0;0.0;0.43061224489795913;0.7;0.43061224489795913;0.43061224489795913;0.7;-15.5;-0.484375;0.7142857142857143;0.00028571428571433355;31.0;0.9113423759758417;1.0214779079324177;1.4256368996412188;1.748045728694584;2.063977799574683;2.3729193272890554;89.31155284563248;100.10483497737692;139.71241616483942;171.30848141206923;202.2698243583189;232.54609407432744;0.1377751099372287;0.154425202617342;0.21552523591182762;0.26426642587350024;0.31202847112196547;0.3587336985612647;0.13808400167809404;0.1547714238592752;0.2160084434037436;0.2648589110936356;0.31272803882826833;0.3595379793686336;5.7033674681393665;5.593231936182791;5.18907294447399;4.866664115420624;4.550732044540526;4.241790516826153;6.719989005530468;8.042826879860902;9.640427132250526;11.132463600516191;12.593026966697312;14.019515978606677;126.58237325800269;120.82930893097259;116.98493698839559;111.42153099151005;105.29333677359986;98.691918409605;32.0;0.0;0.0;-12.671476730931598;461.74000000000024;206.0524565741245;206.47212308716163;0.0;0.0;206.47212308716163;0.0;206.47212308716163;0.0;0.0;192.62464868778036;0.0;13.847474399381248;0.0;0.0;44.38680929967207;4.613190700327925;0.03225806451612904;62.82842712490598;1.9633883476533118;62.82842712490598;1.9633883476533118;30.0;29.0;28.0;27.0;26.0;25.0;24.0;23.0;22.0;297.0;3.4657359027997265;3.4339872044851463;3.4011973816621555;3.367295829986474;3.332204510175204;3.295836866004329;3.258096538021482;3.2188758248682006;3.1780538303479458;3.1354942159291497;5.697093486505405;97.44833799999999;66.211662;29.0;0.9354838709677419;12.729199999999977;149.85799999999986;0.5;0.22222222222222232;0.125;0.08000000000000002;0.05555555555555555;0.04081632653061225;0.03125;0.02469135802469135;0.020000000000000004;0.01652892561983471;0.016129032258064516;0.00740740740740741;0.004310344827586207;0.0028571428571428576;0.0020576131687242796;0.0015698587127158557;0.00125;0.0010288065843621396;0.0008695652173913045;0.0007513148009015778;0.038231085834296144;31.0;16.0;0.9375;0.4838709677419355;562.0279861111753;5.954196310386875;31.0;4.812184355372417;5.484796933490655;6.163314804034641;6.842683282238422;7.52456122628536;8.206583614320753;8.889997357284841;9.573384986422592;10.25769445336048;130.75520101281018;4.143134726391533;5.209486152841421;6.391917113392602;7.628031126930335;8.894670262984233;64.26723938254013;450.51645211200184;4.597106654204101;5456.0;29.0;122.0;120.0;9.5;8.25