boiling_point;SMILES;IUPAC_name;InChIKey;SpAbs_A;SpMax_A;SpDiam_A;SpAD_A;SpMAD_A;LogEE_A;VE1_A;VE2_A;VE3_A;VR1_A;VR2_A;VR3_A;nAtom;nHeavyAtom;nH;nC;ATS0dv;ATS1dv;ATS2dv;ATS3dv;ATS4dv;ATS5dv;ATS6dv;ATS7dv;ATS8dv;ATS0d;ATS1d;ATS2d;ATS3d;ATS4d;ATS5d;ATS6d;ATS7d;ATS8d;ATS0s;ATS1s;ATS2s;ATS3s;ATS4s;ATS5s;ATS6s;ATS7s;ATS8s;ATS0Z;ATS1Z;ATS2Z;ATS3Z;ATS4Z;ATS5Z;ATS6Z;ATS7Z;ATS8Z;ATS0m;ATS1m;ATS2m;ATS3m;ATS4m;ATS5m;ATS6m;ATS7m;ATS8m;ATS0v;ATS1v;ATS2v;ATS3v;ATS4v;ATS5v;ATS6v;ATS7v;ATS8v;ATS0se;ATS1se;ATS2se;ATS3se;ATS4se;ATS5se;ATS6se;ATS7se;ATS8se;ATS0pe;ATS1pe;ATS2pe;ATS3pe;ATS4pe;ATS5pe;ATS6pe;ATS7pe;ATS8pe;ATS0are;ATS1are;ATS2are;ATS3are;ATS4are;ATS5are;ATS6are;ATS7are;ATS8are;ATS0p;ATS1p;ATS2p;ATS3p;ATS4p;ATS5p;ATS6p;ATS7p;ATS8p;ATS0i;ATS1i;ATS2i;ATS3i;ATS4i;ATS5i;ATS6i;ATS7i;ATS8i;AATS0dv;AATS1dv;AATS2dv;AATS3dv;AATS0d;AATS1d;AATS2d;AATS3d;AATS0s;AATS1s;AATS2s;AATS3s;AATS0Z;AATS1Z;AATS2Z;AATS3Z;AATS0m;AATS1m;AATS2m;AATS3m;AATS0v;AATS1v;AATS2v;AATS3v;AATS0se;AATS1se;AATS2se;AATS3se;AATS0pe;AATS1pe;AATS2pe;AATS3pe;AATS0are;AATS1are;AATS2are;AATS3are;AATS0p;AATS1p;AATS2p;AATS3p;AATS0i;AATS1i;AATS2i;AATS3i;ATSC0c;ATSC1c;ATSC2c;ATSC3c;ATSC4c;ATSC5c;ATSC6c;ATSC7c;ATSC8c;ATSC0dv;ATSC1dv;ATSC2dv;ATSC3dv;ATSC4dv;ATSC5dv;ATSC6dv;ATSC7dv;ATSC8dv;ATSC0d;ATSC1d;ATSC2d;ATSC3d;ATSC4d;ATSC5d;ATSC6d;ATSC7d;ATSC8d;ATSC0s;ATSC1s;ATSC2s;ATSC3s;ATSC4s;ATSC5s;ATSC6s;ATSC7s;ATSC8s;ATSC0Z;ATSC1Z;ATSC2Z;ATSC3Z;ATSC4Z;ATSC5Z;ATSC6Z;ATSC7Z;ATSC8Z;ATSC0m;ATSC1m;ATSC2m;ATSC3m;ATSC4m;ATSC5m;ATSC6m;ATSC7m;ATSC8m;ATSC0v;ATSC1v;ATSC2v;ATSC3v;ATSC4v;ATSC5v;ATSC6v;ATSC7v;ATSC8v;ATSC0se;ATSC1se;ATSC2se;ATSC3se;ATSC4se;ATSC5se;ATSC6se;ATSC7se;ATSC8se;ATSC0pe;ATSC1pe;ATSC2pe;ATSC3pe;ATSC4pe;ATSC5pe;ATSC6pe;ATSC7pe;ATSC8pe;ATSC0are;ATSC1are;ATSC2are;ATSC3are;ATSC4are;ATSC5are;ATSC6are;ATSC7are;ATSC8are;ATSC0p;ATSC1p;ATSC2p;ATSC3p;ATSC4p;ATSC5p;ATSC6p;ATSC7p;ATSC8p;ATSC0i;ATSC1i;ATSC2i;ATSC3i;ATSC4i;ATSC5i;ATSC6i;ATSC7i;ATSC8i;AATSC0c;AATSC1c;AATSC2c;AATSC3c;AATSC0dv;AATSC1dv;AATSC2dv;AATSC3dv;AATSC0d;AATSC1d;AATSC2d;AATSC3d;AATSC0s;AATSC1s;AATSC2s;AATSC3s;AATSC0Z;AATSC1Z;AATSC2Z;AATSC3Z;AATSC0m;AATSC1m;AATSC2m;AATSC3m;AATSC0v;AATSC1v;AATSC2v;AATSC3v;AATSC0se;AATSC1se;AATSC2se;AATSC3se;AATSC0pe;AATSC1pe;AATSC2pe;AATSC3pe;AATSC0are;AATSC1are;AATSC2are;AATSC3are;AATSC0p;AATSC1p;AATSC2p;AATSC3p;AATSC0i;AATSC1i;AATSC2i;AATSC3i;MATS1c;MATS2c;MATS3c;MATS1dv;MATS2dv;MATS3dv;MATS1s;MATS2s;MATS3s;MATS1Z;MATS2Z;MATS3Z;MATS1m;MATS2m;MATS3m;MATS1v;MATS2v;MATS3v;MATS1se;MATS2se;MATS3se;MATS1pe;MATS2pe;MATS3pe;MATS1are;MATS2are;MATS3are;MATS1p;MATS2p;MATS3p;MATS1i;MATS2i;MATS3i;GATS1c;GATS2c;GATS3c;GATS1dv;GATS2dv;GATS3dv;GATS1s;GATS2s;GATS3s;GATS1Z;GATS2Z;GATS3Z;GATS1m;GATS2m;GATS3m;GATS1v;GATS2v;GATS3v;GATS1se;GATS2se;GATS3se;GATS1pe;GATS2pe;GATS3pe;GATS1are;GATS2are;GATS3are;GATS1p;GATS2p;GATS3p;GATS1i;GATS2i;GATS3i;BCUTc-1h;BCUTc-1l;BCUTdv-1h;BCUTdv-1l;BCUTd-1h;BCUTd-1l;BCUTs-1h;BCUTs-1l;BCUTZ-1h;BCUTZ-1l;BCUTm-1h;BCUTm-1l;BCUTv-1h;BCUTv-1l;BCUTse-1h;BCUTse-1l;BCUTpe-1h;BCUTpe-1l;BCUTare-1h;BCUTare-1l;BCUTp-1h;BCUTp-1l;BCUTi-1h;BCUTi-1l;BalabanJ;SpAbs_DzZ;SpMax_DzZ;SpDiam_DzZ;SpAD_DzZ;SpMAD_DzZ;LogEE_DzZ;VE1_DzZ;VE2_DzZ;VE3_DzZ;VR1_DzZ;VR2_DzZ;VR3_DzZ;SpAbs_Dzm;SpMax_Dzm;SpDiam_Dzm;SpAD_Dzm;SpMAD_Dzm;LogEE_Dzm;VE1_Dzm;VE2_Dzm;VE3_Dzm;VR1_Dzm;VR2_Dzm;VR3_Dzm;SpAbs_Dzv;SpMax_Dzv;SpDiam_Dzv;SpAD_Dzv;SpMAD_Dzv;LogEE_Dzv;VE1_Dzv;VE2_Dzv;VE3_Dzv;VR1_Dzv;VR2_Dzv;VR3_Dzv;SpAbs_Dzse;SpMax_Dzse;SpDiam_Dzse;SpAD_Dzse;SpMAD_Dzse;LogEE_Dzse;VE1_Dzse;VE2_Dzse;VE3_Dzse;VR1_Dzse;VR2_Dzse;VR3_Dzse;SpAbs_Dzpe;SpMax_Dzpe;SpDiam_Dzpe;SpAD_Dzpe;SpMAD_Dzpe;LogEE_Dzpe;VE1_Dzpe;VE2_Dzpe;VE3_Dzpe;VR1_Dzpe;VR2_Dzpe;VR3_Dzpe;SpAbs_Dzare;SpMax_Dzare;SpDiam_Dzare;SpAD_Dzare;SpMAD_Dzare;LogEE_Dzare;VE1_Dzare;VE2_Dzare;VE3_Dzare;VR1_Dzare;VR2_Dzare;VR3_Dzare;SpAbs_Dzp;SpMax_Dzp;SpDiam_Dzp;SpAD_Dzp;SpMAD_Dzp;LogEE_Dzp;VE1_Dzp;VE2_Dzp;VE3_Dzp;VR1_Dzp;VR2_Dzp;VR3_Dzp;SpAbs_Dzi;SpMax_Dzi;SpDiam_Dzi;SpAD_Dzi;SpMAD_Dzi;LogEE_Dzi;VE1_Dzi;VE2_Dzi;VE3_Dzi;VR1_Dzi;VR2_Dzi;VR3_Dzi;BertzCT;nBonds;nBondsO;nBondsS;nBondsKS;RNCG;RPCG;C1SP3;C2SP3;C3SP3;C4SP3;Xc-3d;Xc-4d;Xc-5d;Xc-6d;Xc-3dv;Xc-4dv;Xc-5dv;Xc-6dv;Xpc-4d;Xpc-5d;Xpc-6d;Xpc-4dv;Xpc-5dv;Xpc-6dv;Xp-0d;Xp-1d;Xp-2d;Xp-3d;Xp-4d;Xp-5d;Xp-6d;Xp-7d;AXp-0d;AXp-1d;Xp-0dv;Xp-1dv;Xp-2dv;Xp-3dv;Xp-4dv;Xp-5dv;Xp-6dv;Xp-7dv;AXp-0dv;AXp-1dv;SZ;Sm;Sv;Sse;Spe;Sare;Sp;Si;MZ;Mm;Mv;Mse;Mpe;Mare;Mp;Mi;SpAbs_D;SpMax_D;SpDiam_D;SpAD_D;SpMAD_D;LogEE_D;VE1_D;VE2_D;VE3_D;VR1_D;VR2_D;VR3_D;NsCH3;NssCH2;NsssCH;NssssC;SsCH3;SssCH2;SsssCH;SssssC;MAXsCH3;MINsCH3;ECIndex;ETA_alpha;ETA_shape_p;ETA_shape_y;ETA_shape_x;ETA_beta;AETA_beta;ETA_beta_s;AETA_beta_s;ETA_eta;AETA_eta;ETA_eta_L;AETA_eta_L;ETA_eta_R;AETA_eta_R;ETA_eta_RL;AETA_eta_RL;ETA_eta_B;AETA_eta_B;ETA_eta_BR;AETA_eta_BR;ETA_epsilon_1;ETA_epsilon_2;ETA_epsilon_3;ETA_epsilon_4;ETA_epsilon_5;ETA_dBeta;AETA_dBeta;ETA_psi_1;ETA_dPsi_B;fragCpx;IC0;IC1;IC2;IC3;IC4;IC5;TIC0;TIC1;TIC2;TIC3;TIC4;TIC5;SIC0;SIC1;SIC2;SIC3;SIC4;SIC5;BIC0;BIC1;BIC2;BIC3;BIC4;BIC5;CIC0;CIC1;CIC2;CIC3;CIC4;CIC5;MIC0;MIC1;MIC2;MIC3;MIC4;MIC5;ZMIC0;ZMIC1;ZMIC2;ZMIC3;ZMIC4;ZMIC5;Kier1;Lipinski;GhoseFilter;FilterItLogS;VMcGowan;LabuteASA;PEOE_VSA6;PEOE_VSA7;SMR_VSA4;SMR_VSA5;SlogP_VSA4;SlogP_VSA5;EState_VSA3;EState_VSA4;EState_VSA5;EState_VSA7;EState_VSA8;VSA_EState4;VSA_EState5;VSA_EState7;VSA_EState8;MDEC-11;MID;AMID;MID_C;AMID_C;MPC2;MPC3;MPC4;MPC5;MPC6;MPC7;MPC8;MPC9;MPC10;TMPC10;piPC1;piPC2;piPC3;piPC4;piPC5;piPC6;piPC7;piPC8;piPC9;piPC10;TpiPC10;apol;bpol;nRot;RotRatio;SLogP;SMR;GGI1;GGI2;GGI3;GGI4;GGI5;GGI6;GGI7;GGI8;GGI9;GGI10;JGI1;JGI2;JGI3;JGI4;JGI5;JGI6;JGI7;JGI8;JGI9;JGI10;JGT10;Diameter;Radius;TopoShapeIndex;PetitjeanIndex;Vabc;VAdjMat;MWC01;MWC02;MWC03;MWC04;MWC05;MWC06;MWC07;MWC08;MWC09;MWC10;TMWC10;SRW02;SRW04;SRW06;SRW08;SRW10;TSRW10;MW;AMW;WPath;WPol;Zagreb1;Zagreb2;mZagreb1;mZagreb2
-88.6;CC;ethane;OTMSDBZUPAUEDD-UHFFFAOYSA-N;2.0;1.0;2.0;2.0;1.0;1.4076059644443804;1.414213562373095;0.7071067811865475;-1.2628643221541278;1.4142135623730951;0.7071067811865476;-1.2628643221541276;8.0;2.0;6.0;2.0;2.0;1.0;0.0;0.0;0.0;0.0;0.0;0.0;0.0;8.0;7.0;12.0;9.0;0.0;0.0;0.0;0.0;0.0;14.0;16.0;18.0;9.0;0.0;0.0;0.0;0.0;0.0;78.0;72.0;42.0;9.0;0.0;0.0;0.0;0.0;0.0;294.624626;216.90664899999996;78.738912;9.144576;0.0;0.0;0.0;0.0;0.0;1033.5362700842409;1111.9365999724414;874.9221648086934;279.75369987837234;0.0;0.0;0.0;0.0;0.0;55.391816000000006;50.246308;83.01657599999999;60.466176;0.0;0.0;0.0;0.0;0.0;42.045;40.1625;62.7;43.56000000000001;0.0;0.0;0.0;0.0;0.0;41.540000000000006;39.25;62.040000000000006;43.56000000000001;0.0;0.0;0.0;0.0;0.0;8.245477429093999;9.470165860000002;9.348943289093999;4.001516143640999;0.0;0.0;0.0;0.0;0.0;1363.094624325494;1045.5296423674;2028.2411984228938;1664.2588682182407;0.0;0.0;0.0;0.0;0.0;0.25;0.14285714285714285;0.0;0.0;1.0;1.0;1.0;1.0;1.75;2.2857142857142856;1.5;1.0;9.75;10.285714285714286;3.5;1.0;36.82807825;30.986664142857137;6.561576;1.016064;129.1920337605301;158.84808571034878;72.91018040072446;31.08374443093026;6.923977000000001;7.178044;6.918047999999999;6.718464;5.255625;5.7375;5.2250000000000005;4.840000000000001;5.192500000000001;5.607142857142857;5.170000000000001;4.840000000000001;1.0306846786367498;1.3528808371428573;0.7790786074244999;0.4446129048489999;170.38682804068674;149.36137748105713;169.02009986857448;184.91765202424895;0.012426007974026305;-0.004659752990259864;-0.0062130039870131526;0.004659752990259864;0.0;0.0;0.0;0.0;0.0;1.5;-0.5625;-0.75;0.5625;0.0;0.0;0.0;0.0;0.0;0.0;0.0;0.0;0.0;0.0;0.0;0.0;0.0;0.0;1.5;-0.5625;-0.75;0.5625;0.0;0.0;0.0;0.0;0.0;37.5;-14.0625;-18.75;14.0625;0.0;0.0;0.0;0.0;0.0;181.59901349999998;-68.09963006249998;-90.79950674999999;68.09963006249997;0.0;0.0;0.0;0.0;0.0;337.691120158834;-126.63417005956268;-168.845560079417;126.63417005956268;0.0;0.0;0.0;0.0;0.0;0.03557399999999997;-0.013340249999999984;-0.017786999999999983;0.013340249999999984;0.0;0.0;0.0;0.0;0.0;0.18374999999999964;-0.06890624999999986;-0.09187499999999982;0.06890624999999986;0.0;0.0;0.0;0.0;0.0;0.13499999999999984;-0.050625000000000246;-0.06749999999999992;0.05062500000000024;0.0;0.0;0.0;0.0;0.0;1.5096364272735;-0.5661136602275627;-0.75481821363675;0.5661136602275627;0.0;0.0;0.0;0.0;0.0;8.200369032673493;-3.0751383872525686;-4.100184516336745;3.0751383872525686;0.0;0.0;0.0;0.0;0.0;0.0015532509967532881;-0.000665678998608552;-0.0005177503322510961;0.000517750332251096;0.1875;-0.08035714285714286;-0.0625;0.0625;0.0;0.0;0.0;0.0;0.1875;-0.08035714285714286;-0.0625;0.0625;4.6875;-2.0089285714285716;-1.5625;1.5625;22.699876687499998;-9.728518580357141;-7.5666255625;7.566625562499997;42.21139001985425;-18.090595722794667;-14.070463339951417;14.07046333995141;0.004446749999999996;-0.0019057499999999977;-0.0014822499999999985;0.0014822499999999983;0.022968749999999954;-0.009843749999999981;-0.007656249999999985;0.007656249999999985;0.01687499999999998;-0.007232142857142893;-0.005624999999999994;0.005625000000000027;0.1887045534091875;-0.08087338003250896;-0.0629015178030625;0.06290151780306252;1.0250461290841866;-0.4393054838932241;-0.3416820430280621;0.34168204302806315;-0.42857142857142855;-0.33333333333333337;0.33333333333333326;-0.4285714285714286;-0.3333333333333333;0.3333333333333333;-0.4285714285714286;-0.3333333333333333;0.3333333333333333;-0.4285714285714286;-0.3333333333333333;0.3333333333333333;-0.42857142857142855;-0.33333333333333337;0.3333333333333332;-0.4285714285714283;-0.3333333333333333;0.33333333333333315;-0.42857142857142844;-0.3333333333333333;0.33333333333333326;-0.4285714285714286;-0.33333333333333337;0.33333333333333337;-0.42857142857143116;-0.33333333333333337;0.3333333333333353;-0.42857142857142877;-0.3333333333333333;0.3333333333333335;-0.4285714285714298;-0.33333333333333326;0.33333333333333426;2.0000000000000004;1.1666666666666667;0.0;2.0;1.1666666666666667;0.0;2.0;1.1666666666666667;0.0;2.0;1.1666666666666667;0.0;2.0000000000000004;1.1666666666666667;0.0;2.0;1.1666666666666667;0.0;1.9999999999999996;1.1666666666666665;0.0;2.0;1.1666666666666667;0.0;2.0;1.1666666666666667;0.0;2.0;1.1666666666666667;0.0;2.0;1.1666666666666667;0.0;0.10999999999999999;-0.11000000000000003;1.1099999999999999;0.89;1.1099999999999999;0.89;2.11;1.89;6.11;5.89;12.120999999999999;11.901;20.689526276115533;20.469526276115534;2.856;2.636;2.6599999999999997;2.44;2.61;2.39;1.7799999999999998;1.5599999999999998;11.3703;11.150300000000001;1.0;2.0;1.0;2.0;2.0;1.0;1.4076059644443804;1.414213562373095;0.7071067811865475;-1.2628643221541278;1.4142135623730951;0.7071067811865476;-1.2628643221541276;2.0;1.0;2.0;2.0;1.0;1.4076059644443804;1.414213562373095;0.7071067811865475;-1.2628643221541278;1.4142135623730951;0.7071067811865476;-1.2628643221541276;2.0;1.0;2.0;2.0;1.0;1.4076059644443804;1.414213562373095;0.7071067811865475;-1.2628643221541278;1.4142135623730951;0.7071067811865476;-1.2628643221541276;2.0;1.0;2.0;2.0;1.0;1.4076059644443804;1.414213562373095;0.7071067811865475;-1.2628643221541278;1.4142135623730951;0.7071067811865476;-1.2628643221541276;2.0;1.0;2.0;2.0;1.0;1.4076059644443804;1.414213562373095;0.7071067811865475;-1.2628643221541278;1.4142135623730951;0.7071067811865476;-1.2628643221541276;2.0;1.0;2.0;2.0;1.0;1.4076059644443804;1.414213562373095;0.7071067811865475;-1.2628643221541278;1.4142135623730951;0.7071067811865476;-1.2628643221541276;2.0;1.0;2.0;2.0;1.0;1.4076059644443804;1.414213562373095;0.7071067811865475;-1.2628643221541278;1.4142135623730951;0.7071067811865476;-1.2628643221541276;2.0;1.0;2.0;2.0;1.0;1.4076059644443804;1.414213562373095;0.7071067811865475;-1.2628643221541278;1.4142135623730951;0.7071067811865476;-1.2628643221541276;0.0;7.0;1.0;7.0;7.0;0.5;0.16666666666666666;2.0;0.0;0.0;0.0;0.0;0.0;0.0;0.0;0.0;0.0;0.0;0.0;0.0;0.0;0.0;0.0;0.0;0.0;2.0;1.0;0.0;0.0;0.0;0.0;0.0;0.0;1.0;1.0;2.0;1.0;0.0;0.0;0.0;0.0;0.0;0.0;1.0;1.0;3.0;2.5035384231121474;3.6254834113576235;7.663510560815732;7.176470588235295;7.280000000000001;4.395663473053892;9.245868937772528;0.375;0.3129423028890184;0.45318542641970294;0.9579388201019665;0.8970588235294119;0.9100000000000001;0.5494579341317365;1.155733617221566;2.0;1.0;2.0;2.0;1.0;1.4076059644443804;1.414213562373095;0.7071067811865475;-1.2628643221541278;1.4142135623730951;0.7071067811865476;-1.2628643221541276;2.0;0.0;0.0;0.0;4.0;0.0;0.0;0.0;2.0;2.0;2.0;1.0;1.0;0.0;0.0;0.5;0.25;0.5;0.25;1.0;0.5;1.0;0.5;1.0;0.5;1.0;0.5;0.0;0.0;0.0;0.0;0.39999999999999997;0.7;0.39999999999999997;0.39999999999999997;0.7;-0.5;-0.25;0.7142857142857143;0.00028571428571433355;1.0;0.8112781244591328;0.8112781244591328;0.8112781244591328;0.8112781244591328;0.8112781244591328;0.8112781244591328;6.490224995673063;6.490224995673063;6.490224995673063;6.490224995673063;6.490224995673063;6.490224995673063;0.2704260414863776;0.2704260414863776;0.2704260414863776;0.2704260414863776;0.2704260414863776;0.2704260414863776;0.28898309867585964;0.28898309867585964;0.28898309867585964;0.28898309867585964;0.28898309867585964;0.28898309867585964;2.188721875540867;2.188721875540867;2.188721875540867;2.188721875540867;2.188721875540867;2.188721875540867;6.319268349454806;6.319268349454806;6.319268349454806;6.319268349454806;6.319268349454806;6.319268349454806;7.867668746754797;7.867668746754797;7.867668746754797;7.867668746754797;7.867668746754797;7.867668746754797;2.0;1.0;0.0;-0.3481257229235901;39.04000000000001;15.104193142226158;13.847474399381248;0.0;0.0;13.847474399381248;0.0;13.847474399381248;0.0;0.0;0.0;13.847474399381248;0.0;0.0;0.0;0.0;4.0;1.0;3.0;1.5;3.0;1.5;0.0;0.0;0.0;0.0;0.0;0.0;0.0;0.0;0.0;3.0;0.6931471805599453;0.0;0.0;0.0;0.0;0.0;0.0;0.0;0.0;0.0;1.3862943611198906;7.340757999999999;6.019242;0.0;0.0;1.0262;11.348000000000003;0.0;0.0;0.0;0.0;0.0;0.0;0.0;0.0;0.0;0.0;0.0;0.0;0.0;0.0;0.0;0.0;0.0;0.0;0.0;0.0;0.0;1.0;1.0;0.0;0.0;43.14842939545636;1.0;1.0;1.0986122886681098;1.0986122886681098;1.0986122886681098;1.0986122886681098;1.0986122886681098;1.0986122886681098;1.0986122886681098;1.0986122886681098;1.0986122886681098;12.887510598012986;1.0986122886681098;1.0986122886681098;1.0986122886681098;1.0986122886681098;1.0986122886681098;7.49306144334055;30.046950191999997;3.7558687739999996;1.0;0.0;2.0;1.0;2.0;1.0