boiling_point;SMILES;IUPAC_name;InChIKey;SpAbs_A;SpMax_A;SpDiam_A;SpAD_A;SpMAD_A;LogEE_A;VE1_A;VE2_A;VE3_A;VR1_A;VR2_A;VR3_A;nAtom;nHeavyAtom;nH;nC;ATS0dv;ATS1dv;ATS2dv;ATS3dv;ATS4dv;ATS5dv;ATS6dv;ATS7dv;ATS8dv;ATS0d;ATS1d;ATS2d;ATS3d;ATS4d;ATS5d;ATS6d;ATS7d;ATS8d;ATS0s;ATS1s;ATS2s;ATS3s;ATS4s;ATS5s;ATS6s;ATS7s;ATS8s;ATS0Z;ATS1Z;ATS2Z;ATS3Z;ATS4Z;ATS5Z;ATS6Z;ATS7Z;ATS8Z;ATS0m;ATS1m;ATS2m;ATS3m;ATS4m;ATS5m;ATS6m;ATS7m;ATS8m;ATS0v;ATS1v;ATS2v;ATS3v;ATS4v;ATS5v;ATS6v;ATS7v;ATS8v;ATS0se;ATS1se;ATS2se;ATS3se;ATS4se;ATS5se;ATS6se;ATS7se;ATS8se;ATS0pe;ATS1pe;ATS2pe;ATS3pe;ATS4pe;ATS5pe;ATS6pe;ATS7pe;ATS8pe;ATS0are;ATS1are;ATS2are;ATS3are;ATS4are;ATS5are;ATS6are;ATS7are;ATS8are;ATS0p;ATS1p;ATS2p;ATS3p;ATS4p;ATS5p;ATS6p;ATS7p;ATS8p;ATS0i;ATS1i;ATS2i;ATS3i;ATS4i;ATS5i;ATS6i;ATS7i;ATS8i;AATS0dv;AATS1dv;AATS2dv;AATS3dv;AATS0d;AATS1d;AATS2d;AATS3d;AATS0s;AATS1s;AATS2s;AATS3s;AATS0Z;AATS1Z;AATS2Z;AATS3Z;AATS0m;AATS1m;AATS2m;AATS3m;AATS0v;AATS1v;AATS2v;AATS3v;AATS0se;AATS1se;AATS2se;AATS3se;AATS0pe;AATS1pe;AATS2pe;AATS3pe;AATS0are;AATS1are;AATS2are;AATS3are;AATS0p;AATS1p;AATS2p;AATS3p;AATS0i;AATS1i;AATS2i;AATS3i;ATSC0c;ATSC1c;ATSC2c;ATSC3c;ATSC4c;ATSC5c;ATSC6c;ATSC7c;ATSC8c;ATSC0dv;ATSC1dv;ATSC2dv;ATSC3dv;ATSC4dv;ATSC5dv;ATSC6dv;ATSC7dv;ATSC8dv;ATSC0d;ATSC1d;ATSC2d;ATSC3d;ATSC4d;ATSC5d;ATSC6d;ATSC7d;ATSC8d;ATSC0s;ATSC1s;ATSC2s;ATSC3s;ATSC4s;ATSC5s;ATSC6s;ATSC7s;ATSC8s;ATSC0Z;ATSC1Z;ATSC2Z;ATSC3Z;ATSC4Z;ATSC5Z;ATSC6Z;ATSC7Z;ATSC8Z;ATSC0m;ATSC1m;ATSC2m;ATSC3m;ATSC4m;ATSC5m;ATSC6m;ATSC7m;ATSC8m;ATSC0v;ATSC1v;ATSC2v;ATSC3v;ATSC4v;ATSC5v;ATSC6v;ATSC7v;ATSC8v;ATSC0se;ATSC1se;ATSC2se;ATSC3se;ATSC4se;ATSC5se;ATSC6se;ATSC7se;ATSC8se;ATSC0pe;ATSC1pe;ATSC2pe;ATSC3pe;ATSC4pe;ATSC5pe;ATSC6pe;ATSC7pe;ATSC8pe;ATSC0are;ATSC1are;ATSC2are;ATSC3are;ATSC4are;ATSC5are;ATSC6are;ATSC7are;ATSC8are;ATSC0p;ATSC1p;ATSC2p;ATSC3p;ATSC4p;ATSC5p;ATSC6p;ATSC7p;ATSC8p;ATSC0i;ATSC1i;ATSC2i;ATSC3i;ATSC4i;ATSC5i;ATSC6i;ATSC7i;ATSC8i;AATSC0c;AATSC1c;AATSC2c;AATSC3c;AATSC0dv;AATSC1dv;AATSC2dv;AATSC3dv;AATSC0d;AATSC1d;AATSC2d;AATSC3d;AATSC0s;AATSC1s;AATSC2s;AATSC3s;AATSC0Z;AATSC1Z;AATSC2Z;AATSC3Z;AATSC0m;AATSC1m;AATSC2m;AATSC3m;AATSC0v;AATSC1v;AATSC2v;AATSC3v;AATSC0se;AATSC1se;AATSC2se;AATSC3se;AATSC0pe;AATSC1pe;AATSC2pe;AATSC3pe;AATSC0are;AATSC1are;AATSC2are;AATSC3are;AATSC0p;AATSC1p;AATSC2p;AATSC3p;AATSC0i;AATSC1i;AATSC2i;AATSC3i;MATS1c;MATS2c;MATS3c;MATS1dv;MATS2dv;MATS3dv;MATS1s;MATS2s;MATS3s;MATS1Z;MATS2Z;MATS3Z;MATS1m;MATS2m;MATS3m;MATS1v;MATS2v;MATS3v;MATS1se;MATS2se;MATS3se;MATS1pe;MATS2pe;MATS3pe;MATS1are;MATS2are;MATS3are;MATS1p;MATS2p;MATS3p;MATS1i;MATS2i;MATS3i;GATS1c;GATS2c;GATS3c;GATS1dv;GATS2dv;GATS3dv;GATS1s;GATS2s;GATS3s;GATS1Z;GATS2Z;GATS3Z;GATS1m;GATS2m;GATS3m;GATS1v;GATS2v;GATS3v;GATS1se;GATS2se;GATS3se;GATS1pe;GATS2pe;GATS3pe;GATS1are;GATS2are;GATS3are;GATS1p;GATS2p;GATS3p;GATS1i;GATS2i;GATS3i;BCUTc-1h;BCUTc-1l;BCUTdv-1h;BCUTdv-1l;BCUTd-1h;BCUTd-1l;BCUTs-1h;BCUTs-1l;BCUTZ-1h;BCUTZ-1l;BCUTm-1h;BCUTm-1l;BCUTv-1h;BCUTv-1l;BCUTse-1h;BCUTse-1l;BCUTpe-1h;BCUTpe-1l;BCUTare-1h;BCUTare-1l;BCUTp-1h;BCUTp-1l;BCUTi-1h;BCUTi-1l;BalabanJ;SpAbs_DzZ;SpMax_DzZ;SpDiam_DzZ;SpAD_DzZ;SpMAD_DzZ;LogEE_DzZ;VE1_DzZ;VE2_DzZ;VE3_DzZ;VR1_DzZ;VR2_DzZ;VR3_DzZ;SpAbs_Dzm;SpMax_Dzm;SpDiam_Dzm;SpAD_Dzm;SpMAD_Dzm;LogEE_Dzm;VE1_Dzm;VE2_Dzm;VE3_Dzm;VR1_Dzm;VR2_Dzm;VR3_Dzm;SpAbs_Dzv;SpMax_Dzv;SpDiam_Dzv;SpAD_Dzv;SpMAD_Dzv;LogEE_Dzv;VE1_Dzv;VE2_Dzv;VE3_Dzv;VR1_Dzv;VR2_Dzv;VR3_Dzv;SpAbs_Dzse;SpMax_Dzse;SpDiam_Dzse;SpAD_Dzse;SpMAD_Dzse;LogEE_Dzse;VE1_Dzse;VE2_Dzse;VE3_Dzse;VR1_Dzse;VR2_Dzse;VR3_Dzse;SpAbs_Dzpe;SpMax_Dzpe;SpDiam_Dzpe;SpAD_Dzpe;SpMAD_Dzpe;LogEE_Dzpe;VE1_Dzpe;VE2_Dzpe;VE3_Dzpe;VR1_Dzpe;VR2_Dzpe;VR3_Dzpe;SpAbs_Dzare;SpMax_Dzare;SpDiam_Dzare;SpAD_Dzare;SpMAD_Dzare;LogEE_Dzare;VE1_Dzare;VE2_Dzare;VE3_Dzare;VR1_Dzare;VR2_Dzare;VR3_Dzare;SpAbs_Dzp;SpMax_Dzp;SpDiam_Dzp;SpAD_Dzp;SpMAD_Dzp;LogEE_Dzp;VE1_Dzp;VE2_Dzp;VE3_Dzp;VR1_Dzp;VR2_Dzp;VR3_Dzp;SpAbs_Dzi;SpMax_Dzi;SpDiam_Dzi;SpAD_Dzi;SpMAD_Dzi;LogEE_Dzi;VE1_Dzi;VE2_Dzi;VE3_Dzi;VR1_Dzi;VR2_Dzi;VR3_Dzi;BertzCT;nBonds;nBondsO;nBondsS;nBondsKS;RNCG;RPCG;C1SP3;C2SP3;C3SP3;C4SP3;Xc-3d;Xc-4d;Xc-5d;Xc-6d;Xc-3dv;Xc-4dv;Xc-5dv;Xc-6dv;Xpc-4d;Xpc-5d;Xpc-6d;Xpc-4dv;Xpc-5dv;Xpc-6dv;Xp-0d;Xp-1d;Xp-2d;Xp-3d;Xp-4d;Xp-5d;Xp-6d;Xp-7d;AXp-0d;AXp-1d;Xp-0dv;Xp-1dv;Xp-2dv;Xp-3dv;Xp-4dv;Xp-5dv;Xp-6dv;Xp-7dv;AXp-0dv;AXp-1dv;SZ;Sm;Sv;Sse;Spe;Sare;Sp;Si;MZ;Mm;Mv;Mse;Mpe;Mare;Mp;Mi;SpAbs_D;SpMax_D;SpDiam_D;SpAD_D;SpMAD_D;LogEE_D;VE1_D;VE2_D;VE3_D;VR1_D;VR2_D;VR3_D;NsCH3;NssCH2;NsssCH;NssssC;SsCH3;SssCH2;SsssCH;SssssC;MAXsCH3;MINsCH3;ECIndex;ETA_alpha;ETA_shape_p;ETA_shape_y;ETA_shape_x;ETA_beta;AETA_beta;ETA_beta_s;AETA_beta_s;ETA_eta;AETA_eta;ETA_eta_L;AETA_eta_L;ETA_eta_R;AETA_eta_R;ETA_eta_RL;AETA_eta_RL;ETA_eta_B;AETA_eta_B;ETA_eta_BR;AETA_eta_BR;ETA_epsilon_1;ETA_epsilon_2;ETA_epsilon_3;ETA_epsilon_4;ETA_epsilon_5;ETA_dBeta;AETA_dBeta;ETA_psi_1;ETA_dPsi_B;fragCpx;IC0;IC1;IC2;IC3;IC4;IC5;TIC0;TIC1;TIC2;TIC3;TIC4;TIC5;SIC0;SIC1;SIC2;SIC3;SIC4;SIC5;BIC0;BIC1;BIC2;BIC3;BIC4;BIC5;CIC0;CIC1;CIC2;CIC3;CIC4;CIC5;MIC0;MIC1;MIC2;MIC3;MIC4;MIC5;ZMIC0;ZMIC1;ZMIC2;ZMIC3;ZMIC4;ZMIC5;Kier1;Lipinski;GhoseFilter;FilterItLogS;VMcGowan;LabuteASA;PEOE_VSA6;PEOE_VSA7;SMR_VSA4;SMR_VSA5;SlogP_VSA4;SlogP_VSA5;EState_VSA3;EState_VSA4;EState_VSA5;EState_VSA7;EState_VSA8;VSA_EState4;VSA_EState5;VSA_EState7;VSA_EState8;MDEC-11;MID;AMID;MID_C;AMID_C;MPC2;MPC3;MPC4;MPC5;MPC6;MPC7;MPC8;MPC9;MPC10;TMPC10;piPC1;piPC2;piPC3;piPC4;piPC5;piPC6;piPC7;piPC8;piPC9;piPC10;TpiPC10;apol;bpol;nRot;RotRatio;SLogP;SMR;GGI1;GGI2;GGI3;GGI4;GGI5;GGI6;GGI7;GGI8;GGI9;GGI10;JGI1;JGI2;JGI3;JGI4;JGI5;JGI6;JGI7;JGI8;JGI9;JGI10;JGT10;Diameter;Radius;TopoShapeIndex;PetitjeanIndex;Vabc;VAdjMat;MWC01;MWC02;MWC03;MWC04;MWC05;MWC06;MWC07;MWC08;MWC09;MWC10;TMWC10;SRW02;SRW04;SRW06;SRW08;SRW10;TSRW10;MW;AMW;WPath;WPol;Zagreb1;Zagreb2;mZagreb1;mZagreb2
138.0;CCCC(CC)C(C)C;3-ethyl-2-methylhexane;MVLOWDRGPHBNNF-UHFFFAOYSA-N;10.19910859582756;2.119165782887463;4.238331565774926;10.19910859582756;1.1332342884252844;3.018931838803005;2.7123141388181926;0.30136823764646586;0.8924416806097744;26.514766394978135;2.9460851549975704;3.1723412845955727;29.0;9.0;20.0;9.0;34.0;35.0;34.0;26.0;13.0;3.0;0.0;0.0;0.0;54.0;65.0;115.0;129.0;123.0;99.0;63.0;27.0;0.0;46.30555555555556;55.02777777777778;84.25;108.58333333333331;121.33333333333331;117.99999999999999;81.0;27.0;0.0;344.0;408.0;519.0;567.0;526.0;366.0;153.0;27.0;0.0;1318.6983689999995;1396.2547279999994;1676.830689;1761.6659849999999;1528.678543;911.3222189999999;263.65046399999994;27.433728000000002;0.0;4433.327004362572;5682.86754140501;7720.00677332348;8781.431404717754;8610.930277717682;6706.586160685731;3464.0275940611973;839.261099635117;0.0;202.2339240000001;202.676768;382.170564;505.497924;565.9166680000001;561.031788;430.448256;181.398528;0.0;155.32250000000002;164.22;299.4225;391.16249999999997;434.47749999999996;424.7475;318.78000000000003;130.68;0.0;153.05;160.0;293.85;384.92999999999995;428.31;420.03;316.8;130.68;0.0;33.992358096980006;44.582086200000006;65.175622872735;77.192243590923;79.180911164866;67.128037163658;40.051378298205;12.004548430922998;0.0;4839.50224529498;4076.8058029780004;8508.590416560735;11646.337527129126;13299.662569970467;13659.33617095286;11077.500199923405;4992.776604654722;0.0;1.1724137931034482;1.25;0.6296296296296297;0.3611111111111111;1.8620689655172413;2.3214285714285716;2.1296296296296298;1.7916666666666667;1.5967432950191571;1.965277777777778;1.5601851851851851;1.5081018518518516;11.862068965517242;14.571428571428571;9.61111111111111;7.875;45.47235755172412;49.86624028571426;31.052420166666664;24.467583124999997;152.8733449780197;202.95955505017895;142.96308839487926;121.96432506552436;6.9735835862068996;7.238456;7.077232666666667;7.020804500000001;5.35594827586207;5.865;5.5448611111111115;5.4328125;5.277586206896552;5.714285714285714;5.441666666666667;5.3462499999999995;1.172150279206207;1.5922173642857145;1.2069559791247224;1.072114494318375;166.8793877687924;145.6002072492143;157.56648919556918;161.7546878767934;0.04087249817771923;-0.007502197143375968;-0.007247443098506658;-0.0012889967425163225;-0.006584895936295977;-0.011914323744611441;-0.0003447199032153769;0.014446327479662121;0.0;25.172413793103445;8.2128418549346;-5.838287752675386;-11.669441141498215;-15.309155766944116;-5.447086801426872;9.246135552913199;8.218787158145066;0.0;9.310344827586206;3.8727705112960753;-2.888228299643283;-5.8394768133174795;-5.418549346016647;0.37455410225921626;3.6706302021403103;1.5731272294887044;0.0;3.6609195402298855;-1.6180142687277055;-0.04964328180737232;-0.17826000792707103;0.3407649623464132;-0.5672810146650814;-0.9788941736028535;1.2208680142687278;0.0;155.17241379310346;-11.890606420927487;-17.39001189060645;-20.60047562425686;-48.929845422116536;-55.82639714625446;12.039239001189088;65.01189060642095;0.0;751.4441937931032;-57.581930558858296;-84.21357344233039;-99.76069469322225;-236.9496442497026;-270.34716397384074;58.301704690844;314.82920533055864;0.0;1397.342566174485;-107.07605871068867;-156.59873586438215;-185.50927171626796;-440.61798159448347;-502.7220956466827;108.41450944457236;585.4383510006897;0.0;0.14720275862068946;-0.01127990487514695;-0.01649686087990356;-0.019542435196194155;-0.04641680856123624;-0.05295915338882352;0.011420903686086083;0.06167287990487358;0.0;0.7603448275862053;-0.05826397146254694;-0.08521105826397325;-0.10094233055885954;-0.23975624256837105;-0.2735493460166452;0.05899227110582909;0.31855826397146414;0.0;0.5586206896551719;-0.042806183115340825;-0.06260404280618459;-0.07416171224732551;-0.1761474435196197;-0.200975029726515;0.04334126040428281;0.23404280618311685;0.0;6.246771423200688;-0.478679802544111;-0.7000692112207643;-0.8293127579076762;-1.969767387469029;-2.2474016729446173;0.48466330007591185;2.6171818204099413;0.0;33.932561514511;-2.60019628463705;-3.802787066281554;-4.504840063133452;-10.69980771128071;-12.207921556369964;2.632698738195036;14.216573186252193;0.0;0.00140939648888687;-0.0002679356122634274;-0.00013421190923160477;-1.7902732534948924e-05;0.868014268727705;0.2933157805333786;-0.10811643986435901;-0.16207557140969742;0.3210463733650416;0.1383132325462884;-0.053485709252653384;-0.08110384462940944;0.1262386048355133;-0.057786223883132336;-0.0009193200334698578;-0.002475833443431542;5.35077288941736;-0.4246645150331245;-0.3220372572334527;-0.2861177170035675;25.911868751486317;-2.056497519959225;-1.5595106193024146;-1.3855652040725313;48.184226419809825;-3.8241449539531667;-2.8999765900811507;-2.576517662725944;0.005075957193816878;-0.0004028537455409625;-0.00030549742370191774;-0.00027142271105825216;0.026218787158145008;-0.002080856123662391;-0.0015779825604439492;-0.0014019768133174935;0.01926278240190248;-0.0015287922541193152;-0.0011593341260404553;-0.0010300237812128543;0.2154059111448513;-0.01709570723371825;-0.012964244652236376;-0.011518232748717725;1.1700883280865861;-0.09286415302275178;-0.07042198270891767;-0.06256722309907572;-0.19010662675557027;-0.09522651027575942;-0.01270241034095974;0.3379158512720156;-0.12455606291222732;-0.1867199391171994;-0.45775398071316437;-0.007282400139543017;-0.01961233211233212;-0.0793650793650795;-0.06018518518518527;-0.053472222222222275;-0.07936507936507911;-0.060185185185185085;-0.053472222222222185;-0.07936507936507949;-0.06018518518518526;-0.05347222222222226;-0.07936507936506763;-0.060185185185180456;-0.05347222222221997;-0.07936507936508275;-0.060185185185186584;-0.053472222222222886;-0.07936507936508305;-0.06018518518518666;-0.05347222222222292;-0.07936507936507887;-0.06018518518518498;-0.05347222222222214;-0.07936507936508522;-0.060185185185187534;-0.05347222222222336;1.7232206101168805;1.164963551419021;1.0275878164051382;1.3109589041095893;1.8332825976661595;1.544901065449011;2.071428571428571;0.8498168498168497;0.9206349206349207;1.6111111111111112;1.2530864197530864;1.1277777777777778;1.6111111111111116;1.2530864197530869;1.1277777777777784;1.6111111111111116;1.2530864197530869;1.1277777777777782;1.6111111111111116;1.2530864197530867;1.127777777777778;1.6111111111111112;1.2530864197530869;1.127777777777778;1.6111111111111107;1.253086419753086;1.1277777777777775;1.6111111111111112;1.2530864197530867;1.127777777777778;1.611111111111111;1.2530864197530867;1.127777777777778;0.21825580510876325;-0.22225687500701133;3.115153370692691;0.9871365457640495;3.115153370692691;0.9871365457640495;2.037341497927573;1.1833771580287318;6.222690776077322;5.782862986988631;12.233690776077301;11.793862986988644;20.802217052192848;20.362389263104177;2.9686907760773247;2.5288629869886345;2.772690776077324;2.332862986988639;2.722690776077323;2.282862986988634;1.892690776077322;1.4528629869886365;11.482990776077324;11.04316298698863;3.410085665167427;44.4396501275327;22.219825063766343;31.28480348313526;44.43965012753269;4.937738903059188;22.21982506450594;2.9460530586698543;0.32733922874109495;0.9751058126311037;27.28763064534333;3.0319589605937036;3.2010729939426734;44.4396501275327;22.219825063766343;31.28480348313526;44.43965012753269;4.937738903059188;22.21982506450594;2.9460530586698543;0.32733922874109495;0.9751058126311037;27.28763064534333;3.0319589605937036;3.2010729939426734;44.4396501275327;22.219825063766343;31.28480348313526;44.43965012753269;4.937738903059188;22.21982506450594;2.9460530586698543;0.32733922874109495;0.9751058126311037;27.28763064534333;3.0319589605937036;3.2010729939426734;44.4396501275327;22.219825063766343;31.28480348313526;44.43965012753269;4.937738903059188;22.21982506450594;2.9460530586698543;0.32733922874109495;0.9751058126311037;27.28763064534333;3.0319589605937036;3.2010729939426734;44.4396501275327;22.219825063766343;31.28480348313526;44.43965012753269;4.937738903059188;22.21982506450594;2.9460530586698543;0.32733922874109495;0.9751058126311037;27.28763064534333;3.0319589605937036;3.2010729939426734;44.4396501275327;22.219825063766343;31.28480348313526;44.43965012753269;4.937738903059188;22.21982506450594;2.9460530586698543;0.32733922874109495;0.9751058126311037;27.28763064534333;3.0319589605937036;3.2010729939426734;44.4396501275327;22.219825063766343;31.28480348313526;44.43965012753269;4.937738903059188;22.21982506450594;2.9460530586698543;0.32733922874109495;0.9751058126311037;27.28763064534333;3.0319589605937036;3.2010729939426734;44.4396501275327;22.219825063766343;31.28480348313526;44.43965012753269;4.937738903059188;22.21982506450594;2.9460530586698543;0.32733922874109495;0.9751058126311037;27.28763064534333;3.0319589605937036;3.2010729939426734;55.058650025961626;28.0;8.0;28.0;28.0;0.13110584410264775;0.06121239444453179;4.0;3.0;2.0;0.0;0.5;0.0;0.16666666666666666;0.0;0.5;0.0;0.16666666666666666;0.0;1.0892556509887894;1.2071067811865475;1.040440114519881;1.0892556509887894;1.2071067811865475;1.040440114519881;7.276020881938894;4.218744015013407;3.201020016300813;2.126652383065803;1.3796528112548947;0.5374574785652648;0.0;0.0;0.8084467646598772;0.5273430018766758;7.276020881938894;4.218744015013407;3.201020016300813;2.126652383065803;1.3796528112548947;0.5374574785652648;0.0;0.0;0.8084467646598772;0.5273430018766758;12.33333333333333;10.678461410373828;14.418278037858745;27.87836853605244;26.254901960784316;26.599999999999998;16.985544910179645;33.15289645924176;0.425287356321839;0.3682228072542699;0.49718200130547396;0.9613230529673256;0.9053414469235971;0.9172413793103448;0.5857084451786084;1.1432033261807504;44.4396501275327;22.219825063766343;31.28480348313526;44.43965012753269;4.937738903059188;22.21982506450594;2.9460530586698543;0.32733922874109495;0.9751058126311037;27.28763064534333;3.0319589605937036;3.2010729939426734;4.0;3.0;2.0;0.0;9.207361111111112;4.1075;1.8518055555555553;0.0;2.323240740740741;2.2688888888888887;63.0;4.5;0.4444444444444444;0.2222222222222222;0.0;4.0;0.4444444444444444;4.0;0.4444444444444444;10.618300505162818;1.179811167240313;4.218744015013407;0.46874933500148963;10.618300505162818;1.179811167240313;4.218744015013407;0.46874933500148963;0.19546954735968836;0.02171883859552093;0.19546954735968836;0.02171883859552093;0.4241379310344827;0.7;0.4241379310344827;0.4241379310344827;0.7;-4.0;-0.4444444444444444;0.7142857142857143;0.00028571428571433355;8.0;0.8935711016541907;1.3685517054754786;2.6328318567489237;3.5124792706912316;3.7193758224153695;3.7193758224153695;25.91356194797153;39.68799945878888;76.3521238457188;101.86189885004572;107.86189885004572;107.86189885004572;0.18393878085369605;0.28171203363045266;0.5419600981126903;0.723032731954727;0.7656217317741272;0.7656217317741272;0.18587583320595183;0.28467873241398256;0.5476674594315248;0.730646962339916;0.7736844653074696;0.7736844653074696;3.9644098934733814;3.4894292896520933;2.225149138378648;1.3455017244363403;1.1386051727122024;1.1386051727122024;6.664965218283638;12.369957250781123;17.724904304861468;19.370416484322206;19.57896820846014;19.57896820846014;35.68332320783173;26.142133731356516;21.08613002046951;17.803303834740262;17.013154424419042;17.013154424419042;9.0;1.0;0.0;-2.7006147003950467;137.67000000000004;59.6587879430024;46.95741366754052;11.835812092322787;11.835812092322787;46.95741366754052;11.835812092322787;46.95741366754052;0.0;11.835812092322787;19.26246486877803;0.0;27.694948798762496;0.0;1.8518055555555553;4.1075;9.207361111111112;1.5059408653100468;16.499084935929247;1.833231659547694;16.499084935929247;1.833231659547694;9.0;9.0;7.0;3.0;0.0;0.0;0.0;0.0;0.0;45.0;2.1972245773362196;2.302585092994046;2.302585092994046;2.0794415416798357;1.3862943611198906;0.0;0.0;0.0;0.0;0.0;3.828641396489095;28.365859999999998;20.06414;4.0;0.5;3.468700000000003;43.52700000000001;2.0;1.1111111111111116;0.625;0.24000000000000005;0.0;0.0;0.0;0.0;0.0;0.0;0.25;0.12345679012345685;0.06944444444444445;0.03428571428571429;0.0;0.0;0.0;0.0;0.0;0.0;0.47718694885361557;5.0;3.0;0.6666666666666666;0.4;164.22032596245742;4.0;8.0;3.5553480614894135;4.2626798770413155;5.017279836814924;5.752572638825633;6.508769136971682;7.252053951852814;8.00736706798333;8.753529336516431;9.508146027598816;75.61774593509436;2.833213344056216;3.970291913552122;5.313205979041787;6.748759547491679;8.223358899479258;36.088829683621064;128.15650064;4.419189677241379;96.0;9.0;34.0;35.0;4.972222222222222;2.361111111111111