boiling_point;SMILES;IUPAC_name;InChIKey;SpAbs_A;SpMax_A;SpDiam_A;SpAD_A;SpMAD_A;LogEE_A;VE1_A;VE2_A;VE3_A;VR1_A;VR2_A;VR3_A;nAtom;nHeavyAtom;nH;nC;ATS0dv;ATS1dv;ATS2dv;ATS3dv;ATS4dv;ATS5dv;ATS6dv;ATS7dv;ATS8dv;ATS0d;ATS1d;ATS2d;ATS3d;ATS4d;ATS5d;ATS6d;ATS7d;ATS8d;ATS0s;ATS1s;ATS2s;ATS3s;ATS4s;ATS5s;ATS6s;ATS7s;ATS8s;ATS0Z;ATS1Z;ATS2Z;ATS3Z;ATS4Z;ATS5Z;ATS6Z;ATS7Z;ATS8Z;ATS0m;ATS1m;ATS2m;ATS3m;ATS4m;ATS5m;ATS6m;ATS7m;ATS8m;ATS0v;ATS1v;ATS2v;ATS3v;ATS4v;ATS5v;ATS6v;ATS7v;ATS8v;ATS0se;ATS1se;ATS2se;ATS3se;ATS4se;ATS5se;ATS6se;ATS7se;ATS8se;ATS0pe;ATS1pe;ATS2pe;ATS3pe;ATS4pe;ATS5pe;ATS6pe;ATS7pe;ATS8pe;ATS0are;ATS1are;ATS2are;ATS3are;ATS4are;ATS5are;ATS6are;ATS7are;ATS8are;ATS0p;ATS1p;ATS2p;ATS3p;ATS4p;ATS5p;ATS6p;ATS7p;ATS8p;ATS0i;ATS1i;ATS2i;ATS3i;ATS4i;ATS5i;ATS6i;ATS7i;ATS8i;AATS0dv;AATS1dv;AATS2dv;AATS3dv;AATS0d;AATS1d;AATS2d;AATS3d;AATS0s;AATS1s;AATS2s;AATS3s;AATS0Z;AATS1Z;AATS2Z;AATS3Z;AATS0m;AATS1m;AATS2m;AATS3m;AATS0v;AATS1v;AATS2v;AATS3v;AATS0se;AATS1se;AATS2se;AATS3se;AATS0pe;AATS1pe;AATS2pe;AATS3pe;AATS0are;AATS1are;AATS2are;AATS3are;AATS0p;AATS1p;AATS2p;AATS3p;AATS0i;AATS1i;AATS2i;AATS3i;ATSC0c;ATSC1c;ATSC2c;ATSC3c;ATSC4c;ATSC5c;ATSC6c;ATSC7c;ATSC8c;ATSC0dv;ATSC1dv;ATSC2dv;ATSC3dv;ATSC4dv;ATSC5dv;ATSC6dv;ATSC7dv;ATSC8dv;ATSC0d;ATSC1d;ATSC2d;ATSC3d;ATSC4d;ATSC5d;ATSC6d;ATSC7d;ATSC8d;ATSC0s;ATSC1s;ATSC2s;ATSC3s;ATSC4s;ATSC5s;ATSC6s;ATSC7s;ATSC8s;ATSC0Z;ATSC1Z;ATSC2Z;ATSC3Z;ATSC4Z;ATSC5Z;ATSC6Z;ATSC7Z;ATSC8Z;ATSC0m;ATSC1m;ATSC2m;ATSC3m;ATSC4m;ATSC5m;ATSC6m;ATSC7m;ATSC8m;ATSC0v;ATSC1v;ATSC2v;ATSC3v;ATSC4v;ATSC5v;ATSC6v;ATSC7v;ATSC8v;ATSC0se;ATSC1se;ATSC2se;ATSC3se;ATSC4se;ATSC5se;ATSC6se;ATSC7se;ATSC8se;ATSC0pe;ATSC1pe;ATSC2pe;ATSC3pe;ATSC4pe;ATSC5pe;ATSC6pe;ATSC7pe;ATSC8pe;ATSC0are;ATSC1are;ATSC2are;ATSC3are;ATSC4are;ATSC5are;ATSC6are;ATSC7are;ATSC8are;ATSC0p;ATSC1p;ATSC2p;ATSC3p;ATSC4p;ATSC5p;ATSC6p;ATSC7p;ATSC8p;ATSC0i;ATSC1i;ATSC2i;ATSC3i;ATSC4i;ATSC5i;ATSC6i;ATSC7i;ATSC8i;AATSC0c;AATSC1c;AATSC2c;AATSC3c;AATSC0dv;AATSC1dv;AATSC2dv;AATSC3dv;AATSC0d;AATSC1d;AATSC2d;AATSC3d;AATSC0s;AATSC1s;AATSC2s;AATSC3s;AATSC0Z;AATSC1Z;AATSC2Z;AATSC3Z;AATSC0m;AATSC1m;AATSC2m;AATSC3m;AATSC0v;AATSC1v;AATSC2v;AATSC3v;AATSC0se;AATSC1se;AATSC2se;AATSC3se;AATSC0pe;AATSC1pe;AATSC2pe;AATSC3pe;AATSC0are;AATSC1are;AATSC2are;AATSC3are;AATSC0p;AATSC1p;AATSC2p;AATSC3p;AATSC0i;AATSC1i;AATSC2i;AATSC3i;MATS1c;MATS2c;MATS3c;MATS1dv;MATS2dv;MATS3dv;MATS1s;MATS2s;MATS3s;MATS1Z;MATS2Z;MATS3Z;MATS1m;MATS2m;MATS3m;MATS1v;MATS2v;MATS3v;MATS1se;MATS2se;MATS3se;MATS1pe;MATS2pe;MATS3pe;MATS1are;MATS2are;MATS3are;MATS1p;MATS2p;MATS3p;MATS1i;MATS2i;MATS3i;GATS1c;GATS2c;GATS3c;GATS1dv;GATS2dv;GATS3dv;GATS1s;GATS2s;GATS3s;GATS1Z;GATS2Z;GATS3Z;GATS1m;GATS2m;GATS3m;GATS1v;GATS2v;GATS3v;GATS1se;GATS2se;GATS3se;GATS1pe;GATS2pe;GATS3pe;GATS1are;GATS2are;GATS3are;GATS1p;GATS2p;GATS3p;GATS1i;GATS2i;GATS3i;BCUTc-1h;BCUTc-1l;BCUTdv-1h;BCUTdv-1l;BCUTd-1h;BCUTd-1l;BCUTs-1h;BCUTs-1l;BCUTZ-1h;BCUTZ-1l;BCUTm-1h;BCUTm-1l;BCUTv-1h;BCUTv-1l;BCUTse-1h;BCUTse-1l;BCUTpe-1h;BCUTpe-1l;BCUTare-1h;BCUTare-1l;BCUTp-1h;BCUTp-1l;BCUTi-1h;BCUTi-1l;BalabanJ;SpAbs_DzZ;SpMax_DzZ;SpDiam_DzZ;SpAD_DzZ;SpMAD_DzZ;LogEE_DzZ;VE1_DzZ;VE2_DzZ;VE3_DzZ;VR1_DzZ;VR2_DzZ;VR3_DzZ;SpAbs_Dzm;SpMax_Dzm;SpDiam_Dzm;SpAD_Dzm;SpMAD_Dzm;LogEE_Dzm;VE1_Dzm;VE2_Dzm;VE3_Dzm;VR1_Dzm;VR2_Dzm;VR3_Dzm;SpAbs_Dzv;SpMax_Dzv;SpDiam_Dzv;SpAD_Dzv;SpMAD_Dzv;LogEE_Dzv;VE1_Dzv;VE2_Dzv;VE3_Dzv;VR1_Dzv;VR2_Dzv;VR3_Dzv;SpAbs_Dzse;SpMax_Dzse;SpDiam_Dzse;SpAD_Dzse;SpMAD_Dzse;LogEE_Dzse;VE1_Dzse;VE2_Dzse;VE3_Dzse;VR1_Dzse;VR2_Dzse;VR3_Dzse;SpAbs_Dzpe;SpMax_Dzpe;SpDiam_Dzpe;SpAD_Dzpe;SpMAD_Dzpe;LogEE_Dzpe;VE1_Dzpe;VE2_Dzpe;VE3_Dzpe;VR1_Dzpe;VR2_Dzpe;VR3_Dzpe;SpAbs_Dzare;SpMax_Dzare;SpDiam_Dzare;SpAD_Dzare;SpMAD_Dzare;LogEE_Dzare;VE1_Dzare;VE2_Dzare;VE3_Dzare;VR1_Dzare;VR2_Dzare;VR3_Dzare;SpAbs_Dzp;SpMax_Dzp;SpDiam_Dzp;SpAD_Dzp;SpMAD_Dzp;LogEE_Dzp;VE1_Dzp;VE2_Dzp;VE3_Dzp;VR1_Dzp;VR2_Dzp;VR3_Dzp;SpAbs_Dzi;SpMax_Dzi;SpDiam_Dzi;SpAD_Dzi;SpMAD_Dzi;LogEE_Dzi;VE1_Dzi;VE2_Dzi;VE3_Dzi;VR1_Dzi;VR2_Dzi;VR3_Dzi;BertzCT;nBonds;nBondsO;nBondsS;nBondsKS;RNCG;RPCG;C1SP3;C2SP3;C3SP3;C4SP3;Xc-3d;Xc-4d;Xc-5d;Xc-6d;Xc-3dv;Xc-4dv;Xc-5dv;Xc-6dv;Xpc-4d;Xpc-5d;Xpc-6d;Xpc-4dv;Xpc-5dv;Xpc-6dv;Xp-0d;Xp-1d;Xp-2d;Xp-3d;Xp-4d;Xp-5d;Xp-6d;Xp-7d;AXp-0d;AXp-1d;Xp-0dv;Xp-1dv;Xp-2dv;Xp-3dv;Xp-4dv;Xp-5dv;Xp-6dv;Xp-7dv;AXp-0dv;AXp-1dv;SZ;Sm;Sv;Sse;Spe;Sare;Sp;Si;MZ;Mm;Mv;Mse;Mpe;Mare;Mp;Mi;SpAbs_D;SpMax_D;SpDiam_D;SpAD_D;SpMAD_D;LogEE_D;VE1_D;VE2_D;VE3_D;VR1_D;VR2_D;VR3_D;NsCH3;NssCH2;NsssCH;NssssC;SsCH3;SssCH2;SsssCH;SssssC;MAXsCH3;MINsCH3;ECIndex;ETA_alpha;ETA_shape_p;ETA_shape_y;ETA_shape_x;ETA_beta;AETA_beta;ETA_beta_s;AETA_beta_s;ETA_eta;AETA_eta;ETA_eta_L;AETA_eta_L;ETA_eta_R;AETA_eta_R;ETA_eta_RL;AETA_eta_RL;ETA_eta_B;AETA_eta_B;ETA_eta_BR;AETA_eta_BR;ETA_epsilon_1;ETA_epsilon_2;ETA_epsilon_3;ETA_epsilon_4;ETA_epsilon_5;ETA_dBeta;AETA_dBeta;ETA_psi_1;ETA_dPsi_B;fragCpx;IC0;IC1;IC2;IC3;IC4;IC5;TIC0;TIC1;TIC2;TIC3;TIC4;TIC5;SIC0;SIC1;SIC2;SIC3;SIC4;SIC5;BIC0;BIC1;BIC2;BIC3;BIC4;BIC5;CIC0;CIC1;CIC2;CIC3;CIC4;CIC5;MIC0;MIC1;MIC2;MIC3;MIC4;MIC5;ZMIC0;ZMIC1;ZMIC2;ZMIC3;ZMIC4;ZMIC5;Kier1;Lipinski;GhoseFilter;FilterItLogS;VMcGowan;LabuteASA;PEOE_VSA6;PEOE_VSA7;SMR_VSA4;SMR_VSA5;SlogP_VSA4;SlogP_VSA5;EState_VSA3;EState_VSA4;EState_VSA5;EState_VSA7;EState_VSA8;VSA_EState4;VSA_EState5;VSA_EState7;VSA_EState8;MDEC-11;MID;AMID;MID_C;AMID_C;MPC2;MPC3;MPC4;MPC5;MPC6;MPC7;MPC8;MPC9;MPC10;TMPC10;piPC1;piPC2;piPC3;piPC4;piPC5;piPC6;piPC7;piPC8;piPC9;piPC10;TpiPC10;apol;bpol;nRot;RotRatio;SLogP;SMR;GGI1;GGI2;GGI3;GGI4;GGI5;GGI6;GGI7;GGI8;GGI9;GGI10;JGI1;JGI2;JGI3;JGI4;JGI5;JGI6;JGI7;JGI8;JGI9;JGI10;JGT10;Diameter;Radius;TopoShapeIndex;PetitjeanIndex;Vabc;VAdjMat;MWC01;MWC02;MWC03;MWC04;MWC05;MWC06;MWC07;MWC08;MWC09;MWC10;TMWC10;SRW02;SRW04;SRW06;SRW08;SRW10;TSRW10;MW;AMW;WPath;WPol;Zagreb1;Zagreb2;mZagreb1;mZagreb2
188.0;CCCCCCC(C)CCC;4-methyldecane;DVWZNKLWPILULD-UHFFFAOYSA-N;12.909972134452541;2.028523488026884;4.057046976053767;12.909972134452541;1.1736338304047764;3.2110726074581226;2.9573387298108167;0.268848975437347;1.1795999659608456;44.39037506852742;4.035488642593402;3.8883328480069457;35.0;11.0;24.0;11.0;40.0;39.0;36.0;31.0;25.0;20.0;15.0;9.0;4.0;64.0;79.0;134.0;150.0;143.0;121.0;104.0;79.0;57.0;53.52777777777778;64.25;102.33333333333333;128.0;125.41666666666666;114.16666666666666;95.83333333333331;75.25;64.0;420.0;504.0;616.0;615.0;560.0;471.0;377.0;304.0;215.0;1611.2908669999997;1733.2113219999997;1943.1817539999997;1846.5012809999998;1658.8891279999998;1341.0663899999995;1077.7635169999999;871.8622119999998;554.0394739999999;5404.695785584951;6988.847810385744;9321.973583208926;9842.856036112029;9115.811391035277;7883.8856326409295;6375.170056048273;5088.618011214776;3856.6922528204277;244.18881200000007;246.228328;467.605864;628.825284;626.40656;563.497944;498.218036;374.86696;311.958344;187.6875;199.66500000000002;366.865;482.90250000000003;478.15999999999997;429.73499999999996;376.8125;284.95;236.52500000000003;184.91;194.5;359.94000000000005;476.01;471.96000000000004;424.26000000000005;372.69000000000005;281.52;233.82;41.348609716376004;54.614063439999995;79.544578877584;89.20886430911101;84.18885159335602;74.16089844911102;61.125781158809005;48.10273615577199;38.074783011526996;5832.761565571976;4942.8847060096;10351.527901803984;14784.084637697513;14969.388350877156;13484.966283150112;12196.781753979609;9053.56773072277;7569.1456629957265;1.1428571428571428;1.1470588235294117;0.5454545454545454;0.34444444444444444;1.8285714285714285;2.323529411764706;2.0303030303030303;1.6666666666666667;1.5293650793650795;1.8897058823529411;1.5505050505050504;1.4222222222222223;12.0;14.823529411764707;9.333333333333334;6.833333333333333;46.03688191428571;50.976803588235285;29.442147787878785;20.516680899999997;154.41987958814147;205.5543473642866;141.24202398801404;109.36506706791144;6.976823200000002;7.242009647058824;7.084937333333333;6.9869476;5.3625;5.8725000000000005;5.558560606060606;5.365583333333333;5.283142857142857;5.720588235294118;5.453636363636364;5.289;1.1813888490393143;1.6062959835294117;1.2052208920846061;0.9912096034345668;166.65033044491358;145.37896194145884;156.8413318455149;164.2676070855279;0.05005329712257401;-0.005816078970655084;-0.01695177625266632;-0.004963862449078251;0.0016012282168011162;-0.006664321469403088;0.005172261334363004;0.0015251596428721946;-0.006609947827354354;28.571428571428573;4.387755102040819;-11.020408163265305;-4.755102040816325;-3.89795918367347;-1.551020408163266;0.7959183673469379;-4.224489795918368;-1.8775510204081638;8.685714285714285;1.9910204081632656;-3.0644897959183672;-1.9346938775510203;-1.3918367346938774;0.09877551020408148;-0.9534693877551021;-1.6008163265306123;-0.11020408163265327;3.5269841269841264;-1.123832199546485;-0.5937414965986393;-0.40272108843537424;0.5996598639455781;-0.7981632653061225;0.2825850340136052;0.598843537414966;-0.7989795918367348;188.57142857142858;-11.755102040816356;-58.448979591836746;-24.183673469387756;-2.0408163265306105;-27.12244897959183;19.938775510204092;-2.3673469387755066;-27.44897959183673;913.183610742857;-56.925731578775725;-283.04738757224504;-117.1128331959184;-9.882939510204057;-131.34426609061217;96.55631901469395;-11.464209831836698;-132.92553641224487;1698.1039185129935;-105.85582868652408;-526.3387037468844;-217.77631422488068;-18.377748035854943;-244.2402713965118;179.5505983103024;-21.318187721591727;-247.1807110822486;0.17888639999999978;-0.011151360000000072;-0.05544704000000002;-0.022941599999999993;-0.0019359999999999907;-0.025729439999999958;0.018914720000000013;-0.0022457599999999803;-0.026039199999999953;0.9239999999999982;-0.0575999999999998;-0.2863999999999993;-0.11849999999999974;-0.009999999999999988;-0.13289999999999974;0.09769999999999973;-0.011600000000000013;-0.13449999999999973;0.678857142857142;-0.042318367346939244;-0.21041632653061243;-0.08706122448979589;-0.007346938775510133;-0.09764081632653042;0.07177959183673482;-0.008522448979591743;-0.09881632653061202;7.591314605718172;-0.4732248065902225;-2.3529788994347225;-0.973561451058012;-0.08215708447746944;-1.0918676527055682;0.8026747153448753;-0.09530221799386462;-1.1050127862219634;41.23614142144384;-2.570564660038149;-12.781418726300416;-5.2884012537241425;-0.44627858681215204;-5.931042418733632;4.360141793154868;-0.5176831607020933;-6.002446992623572;0.0014300942035021145;-0.00017106114619573775;-0.00025684509473736846;-5.515402721198056e-05;0.8163265306122449;0.12905162064825937;-0.16697588126159554;-0.052834467120181396;0.24816326530612243;0.05855942376950781;-0.046431663574520714;-0.021496598639455782;0.10077097505668933;-0.033053888221955444;-0.008996083281797565;-0.004474678760393047;5.387755102040817;-0.3457382953181281;-0.8855905998763144;-0.2687074829931973;26.090960306938772;-1.6742862229051685;-4.288596781397652;-1.301253702176871;48.51725481465696;-3.1134067260742375;-7.974828844649764;-2.4197368247208964;0.005111039999999994;-0.00032798117647059034;-0.0008401066666666669;-0.0002549066666666666;0.026399999999999948;-0.0016941176470588175;-0.004339393939393929;-0.001316666666666664;0.019395918367346915;-0.001244657863145272;-0.003188126159554734;-0.0009673469387755099;0.2168947030205192;-0.013918376664418308;-0.035651195445980645;-0.010817349456200134;1.1781754691841098;-0.07560484294229851;-0.19365785948940023;-0.05876001393026825;-0.11961529931163363;-0.1796001229208455;-0.03856670915588325;0.15808823529411772;-0.20454545454545453;-0.06472222222222221;-0.32801000688304127;-0.08927256361999836;-0.04440444044404442;-0.06417112299465257;-0.16437098255280075;-0.049873737373737376;-0.06417112299465266;-0.16437098255280086;-0.049873737373737397;-0.06417112299465229;-0.1643709825528007;-0.049873737373737376;-0.0641711229946529;-0.16437098255280097;-0.049873737373737424;-0.06417112299465232;-0.1643709825528007;-0.049873737373737376;-0.06417112299465319;-0.16437098255280108;-0.049873737373737424;-0.06417112299465223;-0.16437098255280067;-0.049873737373737355;-0.0641711229946547;-0.1643709825528017;-0.04987373737373751;1.6469562320094326;1.3161811248937734;1.0170963303651415;1.4349999999999998;1.676818181818182;1.1371111111111112;1.9295679567956798;1.0102487521479424;0.9193669366936696;1.5909090909090908;1.3659320477502295;1.0517676767676767;1.5909090909090913;1.36593204775023;1.0517676767676771;1.5909090909090913;1.36593204775023;1.051767676767677;1.5909090909090908;1.3659320477502297;1.051767676767677;1.590909090909091;1.3659320477502297;1.0517676767676767;1.5909090909090913;1.3659320477502297;1.051767676767677;1.5909090909090908;1.3659320477502293;1.0517676767676767;1.5909090909090913;1.3659320477502301;1.051767676767677;0.21030751376697154;-0.20865440039048747;3.0257595028598545;0.9871436079937704;3.0257595028598545;0.9871436079937704;2.0266002331756794;1.2306477363529522;6.2126381184260815;5.79442063885138;12.223638118426068;11.805420638851398;20.792164394541608;20.37394691496691;2.9586381184260837;2.5404206388513786;2.762638118426079;2.34442063885138;2.7126381184260824;2.2944206388513813;1.882638118426083;1.4644206388513845;11.47293811842608;11.054720638851375;2.9725776527439676;76.50528854950774;38.25264427475388;59.6156884883063;76.50528854950775;6.955026231773432;38.25264427475388;3.2596242093729115;0.2963294735793556;1.276922095339982;36.20995701088844;3.2918142737171308;3.684644316364612;76.50528854950774;38.25264427475388;59.6156884883063;76.50528854950775;6.955026231773432;38.25264427475388;3.2596242093729115;0.2963294735793556;1.276922095339982;36.20995701088844;3.2918142737171308;3.684644316364612;76.50528854950774;38.25264427475388;59.6156884883063;76.50528854950775;6.955026231773432;38.25264427475388;3.2596242093729115;0.2963294735793556;1.276922095339982;36.20995701088844;3.2918142737171308;3.684644316364612;76.50528854950774;38.25264427475388;59.6156884883063;76.50528854950775;6.955026231773432;38.25264427475388;3.2596242093729115;0.2963294735793556;1.276922095339982;36.20995701088844;3.2918142737171308;3.684644316364612;76.50528854950774;38.25264427475388;59.6156884883063;76.50528854950775;6.955026231773432;38.25264427475388;3.2596242093729115;0.2963294735793556;1.276922095339982;36.20995701088844;3.2918142737171308;3.684644316364612;76.50528854950774;38.25264427475388;59.6156884883063;76.50528854950775;6.955026231773432;38.25264427475388;3.2596242093729115;0.2963294735793556;1.276922095339982;36.20995701088844;3.2918142737171308;3.684644316364612;76.50528854950774;38.25264427475388;59.6156884883063;76.50528854950775;6.955026231773432;38.25264427475388;3.2596242093729115;0.2963294735793556;1.276922095339982;36.20995701088844;3.2918142737171308;3.684644316364612;76.50528854950774;38.25264427475388;59.6156884883063;76.50528854950775;6.955026231773432;38.25264427475388;3.2596242093729115;0.2963294735793556;1.276922095339982;36.20995701088844;3.2918142737171308;3.684644316364612;66.43856189774725;34.0;10.0;34.0;34.0;0.10696388096430826;0.04905405036086547;3.0;7.0;1.0;0.0;0.28867513459481287;0.0;0.0;0.0;0.28867513459481287;0.0;0.0;0.0;0.408248290463863;0.4927992798267444;0.34846171252933794;0.408248290463863;0.4927992798267444;0.34846171252933794;8.52709773749546;5.308060412490447;3.7431821564919865;2.331951230073507;1.5567128222475322;0.7716380477393471;0.45052378514530367;0.29743067622135505;0.7751907034086781;0.5308060412490447;8.52709773749546;5.308060412490447;3.7431821564919865;2.331951230073507;1.5567128222475322;0.7716380477393471;0.45052378514530367;0.29743067622135505;0.7751907034086781;0.5308060412490447;14.999999999999998;13.014153692448593;17.501933645430487;33.654042243262936;31.705882352941178;32.120000000000005;20.582653892215575;39.98347575109011;0.42857142857142855;0.3718329626413884;0.5000552470122996;0.9615440640932267;0.9058823529411765;0.9177142857142858;0.5880758254918735;1.1423850214597175;76.50528854950774;38.25264427475388;59.6156884883063;76.50528854950775;6.955026231773432;38.25264427475388;3.2596242093729115;0.2963294735793556;1.276922095339982;36.20995701088844;3.2918142737171308;3.684644316364612;3.0;7.0;1.0;0.0;6.937956506676745;9.926065602166794;0.9693112244897957;0.0;2.38437074829932;2.273285226127488;135.0;5.5;0.2727272727272727;0.09090909090909091;0.0;5.0;0.45454545454545453;5.0;0.45454545454545453;12.99893245324005;1.1817211321127319;5.308060412490447;0.48255094659004066;12.99893245324005;1.1817211321127319;5.308060412490447;0.48255094659004066;0.10615314988264757;0.009650286352967961;0.10615314988264757;0.009650286352967961;0.42571428571428566;0.7;0.42571428571428566;0.42571428571428566;0.7;-5.0;-0.45454545454545453;0.7142857142857143;0.00028571428571433355;10.0;0.898058793450166;1.287983817691411;2.4839349762606595;3.592870516635899;4.150292659616668;4.32172123104524;31.43205777075581;45.079433619199385;86.93772416912309;125.75046808225646;145.2602430865834;151.2602430865834;0.17508466397415823;0.25110406531214224;0.4842655334195435;0.7004625217143575;0.8091369974918267;0.8425585441021901;0.17652390228160394;0.25316820149488595;0.48824631329399276;0.706220493151137;0.8157882994181548;0.8494845792294959;4.2312242234948005;3.8412991992535552;2.645348040684307;1.5364125003090674;0.9789903573282981;0.8075617858997264;6.679732529265542;11.363121995427134;16.860277433316327;20.730370949051846;21.920995326319314;22.09379532631931;43.59544950046522;34.80984237770156;27.805379147715595;19.89829647700057;16.650751709709812;15.856529729937566;11.0;1.0;0.0;-3.9091762724663903;165.85000000000005;72.38867217179562;65.71696295955394;5.917906046161393;5.917906046161393;65.71696295955394;5.917906046161393;65.71696295955394;0.0;5.917906046161393;44.94575136048208;0.0;20.771211599071872;0.0;0.9693112244897957;9.926065602166794;6.937956506676745;0.4749571257964983;20.652435603808865;1.8774941458008059;20.652435603808865;1.8774941458008059;10.0;9.0;8.0;6.0;5.0;4.0;2.0;1.0;0.0;66.0;2.3978952727983707;2.3978952727983707;2.302585092994046;2.1972245773362196;1.9459101490553132;1.791759469228055;1.6094379124341003;1.0986122886681098;0.6931471805599453;0.0;4.204692619390966;34.373031999999995;24.076968;7.0;0.7;4.393000000000004;52.83100000000004;1.5;0.666666666666667;0.375;0.16000000000000003;0.1111111111111111;0.0816326530612245;0.03125;0.02469135802469135;0.0;0.0;0.15;0.0666666666666667;0.041666666666666664;0.020000000000000004;0.018518518518518517;0.0163265306122449;0.0078125;0.012345679012345675;0.0;0.0;0.33333656147644253;9.0;5.0;0.8;0.4444444444444444;198.81229641017202;4.321928094887362;10.0;3.713572066704308;4.3694478524670215;5.0689042022202315;5.746203190540153;6.456769655572163;7.142827401161621;7.85748078694253;8.54772239645106;9.263975921142093;79.16690347320117;3.044522437723423;4.110873864173311;5.332718793265369;6.6293632534374485;7.9658927350845286;38.08337108368408;156.187800768;4.462508593371428;202.0;9.0;40.0;39.0;4.861111111111111;2.9166666666666665