boiling_point;SMILES;IUPAC_name;InChIKey;SpAbs_A;SpMax_A;SpDiam_A;SpAD_A;SpMAD_A;LogEE_A;VE1_A;VE2_A;VE3_A;VR1_A;VR2_A;VR3_A;nAtom;nHeavyAtom;nH;nC;ATS0dv;ATS1dv;ATS2dv;ATS3dv;ATS4dv;ATS5dv;ATS6dv;ATS7dv;ATS8dv;ATS0d;ATS1d;ATS2d;ATS3d;ATS4d;ATS5d;ATS6d;ATS7d;ATS8d;ATS0s;ATS1s;ATS2s;ATS3s;ATS4s;ATS5s;ATS6s;ATS7s;ATS8s;ATS0Z;ATS1Z;ATS2Z;ATS3Z;ATS4Z;ATS5Z;ATS6Z;ATS7Z;ATS8Z;ATS0m;ATS1m;ATS2m;ATS3m;ATS4m;ATS5m;ATS6m;ATS7m;ATS8m;ATS0v;ATS1v;ATS2v;ATS3v;ATS4v;ATS5v;ATS6v;ATS7v;ATS8v;ATS0se;ATS1se;ATS2se;ATS3se;ATS4se;ATS5se;ATS6se;ATS7se;ATS8se;ATS0pe;ATS1pe;ATS2pe;ATS3pe;ATS4pe;ATS5pe;ATS6pe;ATS7pe;ATS8pe;ATS0are;ATS1are;ATS2are;ATS3are;ATS4are;ATS5are;ATS6are;ATS7are;ATS8are;ATS0p;ATS1p;ATS2p;ATS3p;ATS4p;ATS5p;ATS6p;ATS7p;ATS8p;ATS0i;ATS1i;ATS2i;ATS3i;ATS4i;ATS5i;ATS6i;ATS7i;ATS8i;AATS0dv;AATS1dv;AATS2dv;AATS3dv;AATS0d;AATS1d;AATS2d;AATS3d;AATS0s;AATS1s;AATS2s;AATS3s;AATS0Z;AATS1Z;AATS2Z;AATS3Z;AATS0m;AATS1m;AATS2m;AATS3m;AATS0v;AATS1v;AATS2v;AATS3v;AATS0se;AATS1se;AATS2se;AATS3se;AATS0pe;AATS1pe;AATS2pe;AATS3pe;AATS0are;AATS1are;AATS2are;AATS3are;AATS0p;AATS1p;AATS2p;AATS3p;AATS0i;AATS1i;AATS2i;AATS3i;ATSC0c;ATSC1c;ATSC2c;ATSC3c;ATSC4c;ATSC5c;ATSC6c;ATSC7c;ATSC8c;ATSC0dv;ATSC1dv;ATSC2dv;ATSC3dv;ATSC4dv;ATSC5dv;ATSC6dv;ATSC7dv;ATSC8dv;ATSC0d;ATSC1d;ATSC2d;ATSC3d;ATSC4d;ATSC5d;ATSC6d;ATSC7d;ATSC8d;ATSC0s;ATSC1s;ATSC2s;ATSC3s;ATSC4s;ATSC5s;ATSC6s;ATSC7s;ATSC8s;ATSC0Z;ATSC1Z;ATSC2Z;ATSC3Z;ATSC4Z;ATSC5Z;ATSC6Z;ATSC7Z;ATSC8Z;ATSC0m;ATSC1m;ATSC2m;ATSC3m;ATSC4m;ATSC5m;ATSC6m;ATSC7m;ATSC8m;ATSC0v;ATSC1v;ATSC2v;ATSC3v;ATSC4v;ATSC5v;ATSC6v;ATSC7v;ATSC8v;ATSC0se;ATSC1se;ATSC2se;ATSC3se;ATSC4se;ATSC5se;ATSC6se;ATSC7se;ATSC8se;ATSC0pe;ATSC1pe;ATSC2pe;ATSC3pe;ATSC4pe;ATSC5pe;ATSC6pe;ATSC7pe;ATSC8pe;ATSC0are;ATSC1are;ATSC2are;ATSC3are;ATSC4are;ATSC5are;ATSC6are;ATSC7are;ATSC8are;ATSC0p;ATSC1p;ATSC2p;ATSC3p;ATSC4p;ATSC5p;ATSC6p;ATSC7p;ATSC8p;ATSC0i;ATSC1i;ATSC2i;ATSC3i;ATSC4i;ATSC5i;ATSC6i;ATSC7i;ATSC8i;AATSC0c;AATSC1c;AATSC2c;AATSC3c;AATSC0dv;AATSC1dv;AATSC2dv;AATSC3dv;AATSC0d;AATSC1d;AATSC2d;AATSC3d;AATSC0s;AATSC1s;AATSC2s;AATSC3s;AATSC0Z;AATSC1Z;AATSC2Z;AATSC3Z;AATSC0m;AATSC1m;AATSC2m;AATSC3m;AATSC0v;AATSC1v;AATSC2v;AATSC3v;AATSC0se;AATSC1se;AATSC2se;AATSC3se;AATSC0pe;AATSC1pe;AATSC2pe;AATSC3pe;AATSC0are;AATSC1are;AATSC2are;AATSC3are;AATSC0p;AATSC1p;AATSC2p;AATSC3p;AATSC0i;AATSC1i;AATSC2i;AATSC3i;MATS1c;MATS2c;MATS3c;MATS1dv;MATS2dv;MATS3dv;MATS1s;MATS2s;MATS3s;MATS1Z;MATS2Z;MATS3Z;MATS1m;MATS2m;MATS3m;MATS1v;MATS2v;MATS3v;MATS1se;MATS2se;MATS3se;MATS1pe;MATS2pe;MATS3pe;MATS1are;MATS2are;MATS3are;MATS1p;MATS2p;MATS3p;MATS1i;MATS2i;MATS3i;GATS1c;GATS2c;GATS3c;GATS1dv;GATS2dv;GATS3dv;GATS1s;GATS2s;GATS3s;GATS1Z;GATS2Z;GATS3Z;GATS1m;GATS2m;GATS3m;GATS1v;GATS2v;GATS3v;GATS1se;GATS2se;GATS3se;GATS1pe;GATS2pe;GATS3pe;GATS1are;GATS2are;GATS3are;GATS1p;GATS2p;GATS3p;GATS1i;GATS2i;GATS3i;BCUTc-1h;BCUTc-1l;BCUTdv-1h;BCUTdv-1l;BCUTd-1h;BCUTd-1l;BCUTs-1h;BCUTs-1l;BCUTZ-1h;BCUTZ-1l;BCUTm-1h;BCUTm-1l;BCUTv-1h;BCUTv-1l;BCUTse-1h;BCUTse-1l;BCUTpe-1h;BCUTpe-1l;BCUTare-1h;BCUTare-1l;BCUTp-1h;BCUTp-1l;BCUTi-1h;BCUTi-1l;BalabanJ;SpAbs_DzZ;SpMax_DzZ;SpDiam_DzZ;SpAD_DzZ;SpMAD_DzZ;LogEE_DzZ;VE1_DzZ;VE2_DzZ;VE3_DzZ;VR1_DzZ;VR2_DzZ;VR3_DzZ;SpAbs_Dzm;SpMax_Dzm;SpDiam_Dzm;SpAD_Dzm;SpMAD_Dzm;LogEE_Dzm;VE1_Dzm;VE2_Dzm;VE3_Dzm;VR1_Dzm;VR2_Dzm;VR3_Dzm;SpAbs_Dzv;SpMax_Dzv;SpDiam_Dzv;SpAD_Dzv;SpMAD_Dzv;LogEE_Dzv;VE1_Dzv;VE2_Dzv;VE3_Dzv;VR1_Dzv;VR2_Dzv;VR3_Dzv;SpAbs_Dzse;SpMax_Dzse;SpDiam_Dzse;SpAD_Dzse;SpMAD_Dzse;LogEE_Dzse;VE1_Dzse;VE2_Dzse;VE3_Dzse;VR1_Dzse;VR2_Dzse;VR3_Dzse;SpAbs_Dzpe;SpMax_Dzpe;SpDiam_Dzpe;SpAD_Dzpe;SpMAD_Dzpe;LogEE_Dzpe;VE1_Dzpe;VE2_Dzpe;VE3_Dzpe;VR1_Dzpe;VR2_Dzpe;VR3_Dzpe;SpAbs_Dzare;SpMax_Dzare;SpDiam_Dzare;SpAD_Dzare;SpMAD_Dzare;LogEE_Dzare;VE1_Dzare;VE2_Dzare;VE3_Dzare;VR1_Dzare;VR2_Dzare;VR3_Dzare;SpAbs_Dzp;SpMax_Dzp;SpDiam_Dzp;SpAD_Dzp;SpMAD_Dzp;LogEE_Dzp;VE1_Dzp;VE2_Dzp;VE3_Dzp;VR1_Dzp;VR2_Dzp;VR3_Dzp;SpAbs_Dzi;SpMax_Dzi;SpDiam_Dzi;SpAD_Dzi;SpMAD_Dzi;LogEE_Dzi;VE1_Dzi;VE2_Dzi;VE3_Dzi;VR1_Dzi;VR2_Dzi;VR3_Dzi;BertzCT;nBonds;nBondsO;nBondsS;nBondsKS;RNCG;RPCG;C1SP3;C2SP3;C3SP3;C4SP3;Xc-3d;Xc-4d;Xc-5d;Xc-6d;Xc-3dv;Xc-4dv;Xc-5dv;Xc-6dv;Xpc-4d;Xpc-5d;Xpc-6d;Xpc-4dv;Xpc-5dv;Xpc-6dv;Xp-0d;Xp-1d;Xp-2d;Xp-3d;Xp-4d;Xp-5d;Xp-6d;Xp-7d;AXp-0d;AXp-1d;Xp-0dv;Xp-1dv;Xp-2dv;Xp-3dv;Xp-4dv;Xp-5dv;Xp-6dv;Xp-7dv;AXp-0dv;AXp-1dv;SZ;Sm;Sv;Sse;Spe;Sare;Sp;Si;MZ;Mm;Mv;Mse;Mpe;Mare;Mp;Mi;SpAbs_D;SpMax_D;SpDiam_D;SpAD_D;SpMAD_D;LogEE_D;VE1_D;VE2_D;VE3_D;VR1_D;VR2_D;VR3_D;NsCH3;NssCH2;NsssCH;NssssC;SsCH3;SssCH2;SsssCH;SssssC;MAXsCH3;MINsCH3;ECIndex;ETA_alpha;ETA_shape_p;ETA_shape_y;ETA_shape_x;ETA_beta;AETA_beta;ETA_beta_s;AETA_beta_s;ETA_eta;AETA_eta;ETA_eta_L;AETA_eta_L;ETA_eta_R;AETA_eta_R;ETA_eta_RL;AETA_eta_RL;ETA_eta_B;AETA_eta_B;ETA_eta_BR;AETA_eta_BR;ETA_epsilon_1;ETA_epsilon_2;ETA_epsilon_3;ETA_epsilon_4;ETA_epsilon_5;ETA_dBeta;AETA_dBeta;ETA_psi_1;ETA_dPsi_B;fragCpx;IC0;IC1;IC2;IC3;IC4;IC5;TIC0;TIC1;TIC2;TIC3;TIC4;TIC5;SIC0;SIC1;SIC2;SIC3;SIC4;SIC5;BIC0;BIC1;BIC2;BIC3;BIC4;BIC5;CIC0;CIC1;CIC2;CIC3;CIC4;CIC5;MIC0;MIC1;MIC2;MIC3;MIC4;MIC5;ZMIC0;ZMIC1;ZMIC2;ZMIC3;ZMIC4;ZMIC5;Kier1;Lipinski;GhoseFilter;FilterItLogS;VMcGowan;LabuteASA;PEOE_VSA6;PEOE_VSA7;SMR_VSA4;SMR_VSA5;SlogP_VSA4;SlogP_VSA5;EState_VSA3;EState_VSA4;EState_VSA5;EState_VSA7;EState_VSA8;VSA_EState4;VSA_EState5;VSA_EState7;VSA_EState8;MDEC-11;MID;AMID;MID_C;AMID_C;MPC2;MPC3;MPC4;MPC5;MPC6;MPC7;MPC8;MPC9;MPC10;TMPC10;piPC1;piPC2;piPC3;piPC4;piPC5;piPC6;piPC7;piPC8;piPC9;piPC10;TpiPC10;apol;bpol;nRot;RotRatio;SLogP;SMR;GGI1;GGI2;GGI3;GGI4;GGI5;GGI6;GGI7;GGI8;GGI9;GGI10;JGI1;JGI2;JGI3;JGI4;JGI5;JGI6;JGI7;JGI8;JGI9;JGI10;JGT10;Diameter;Radius;TopoShapeIndex;PetitjeanIndex;Vabc;VAdjMat;MWC01;MWC02;MWC03;MWC04;MWC05;MWC06;MWC07;MWC08;MWC09;MWC10;TMWC10;SRW02;SRW04;SRW06;SRW08;SRW10;TSRW10;MW;AMW;WPath;WPol;Zagreb1;Zagreb2;mZagreb1;mZagreb2
98.38;CCCCCCC;heptane;IMNFDUFMRHMDMM-UHFFFAOYSA-N;8.054678984251696;1.8477590650225737;3.6955181300451474;8.054678984251696;1.1506684263216709;2.7391926501760535;2.5136697460629236;0.35909567800898906;0.5650687916744175;16.799928348147734;2.3999897640211048;2.4646996774701795;23.0;7.0;16.0;7.0;22.0;20.0;16.0;12.0;8.0;4.0;1.0;0.0;0.0;38.0;46.0;75.0;80.0;64.0;48.0;33.0;18.0;9.0;35.25;42.0;64.75;73.5;61.25;49.0;37.0;24.0;9.0;268.0;312.0;347.0;304.0;240.0;176.0;112.0;48.0;9.0;1026.1058709999998;1059.2981339999997;1047.2815969999997;871.8622119999998;675.1054829999998;478.348754;281.592025;84.835296;9.144576;3461.9582231401932;4376.8872724242765;5442.657723120366;5088.618011214776;4081.819666259651;3075.0213213045254;2068.2229763494;1061.424631394275;279.75369987837234;160.27903600000005;159.12520800000001;296.66411600000004;374.86696;311.98206;249.09716;186.21226000000001;123.32736;60.466176;122.95750000000004;128.77499999999998;231.6125;284.95000000000005;236.6475;188.345;140.04250000000002;91.74000000000001;43.56000000000001;121.19000000000003;125.5;227.49000000000004;281.52;233.91;186.3;138.69;91.08000000000001;43.56000000000001;26.63610647758399;34.550108959999996;47.787394013339004;48.10273615577201;39.08120729637601;30.059678436979997;21.038149577583997;12.016620718187998;4.001516143640999;3846.242925017984;3210.7268999464004;6649.2521932521395;9053.567730722772;7574.612575684176;6095.657420645579;4616.702265606984;3137.7471105683876;1664.2588682182407;0.9565217391304348;0.9090909090909091;0.38095238095238093;0.2222222222222222;1.6521739130434783;2.090909090909091;1.7857142857142858;1.4814814814814814;1.5326086956521738;1.9090909090909092;1.5416666666666667;1.3611111111111112;11.652173913043478;14.181818181818182;8.261904761904763;5.62962962962963;44.61329873913042;48.149915181818166;24.93527611904761;16.145596518518513;150.51992274522578;198.94942147383074;129.58708864572301;94.2336668743477;6.968653739130437;7.232964000000001;7.063431333333334;6.941980740740741;5.3459782608695665;5.85340909090909;5.514583333333333;5.276851851851853;5.26913043478261;5.704545454545454;5.416428571428573;5.213333333333333;1.1580915859819125;1.570459498181818;1.1377950955556906;0.8907914102920742;167.22795326165146;145.94213181574548;158.31552841076524;167.65866168005135;0.033668658011887266;-0.004436654076574997;-0.015121270284079722;-0.00011180211184705314;9.415058941318437e-06;3.65401138385259e-05;-0.0002390768210683977;-0.0017471197952050347;0.004775638910051731;15.739130434782613;0.9451795841209816;-7.001890359168242;-1.4744801512287327;-1.6635160680529302;-1.8525519848771257;-1.041587901701323;1.76937618147448;2.4499054820415878;3.9130434782608705;0.6918714555765586;-1.5368620037807195;-0.665406427221172;-0.7863894139886578;-0.9073724007561433;-0.02835538752362904;0.8506616257088853;0.42533081285444263;2.3695652173913055;-0.6795841209829866;-0.7509451795841209;0.04536862003780712;0.037807183364839236;0.030245746691871467;0.2726843100189035;-0.4848771266540643;0.3445179584120982;121.73913043478264;-12.098298676748584;-51.65406427221173;-3.2136105860113435;-3.402646502835534;-3.5916824196597332;-3.7807183364839307;-3.9697542533081283;20.841209829867676;589.5388264347828;-58.58770945935694;-250.14205640264626;-15.562360325141846;-16.477793285444307;-17.3932262457468;-18.30865920604924;-19.224092166351717;100.92648387334582;1096.2726219649105;-108.94634752446282;-465.1498353290553;-28.938873561185588;-30.641160241255363;-32.343446921325075;-34.04573360139484;-35.74802028146459;187.67710647768834;0.11548660869565203;-0.011476930056709505;-0.049001111531189974;-0.0030485595463140436;-0.003227886578450195;-0.0034072136105863455;-0.0035865406427224985;-0.0037658676748586473;0.019770805293005178;0.5965217391304339;-0.05928166351607157;-0.2531049149338395;-0.01574669187145482;-0.01667296786389326;-0.017599243856331673;-0.018525519848770117;-0.019451795841208538;0.10212192816635277;0.43826086956521704;-0.04355387523629765;-0.18595463137996399;-0.011568998109640273;-0.01224952741020726;-0.012930056710774285;-0.01361058601134129;-0.014291115311908298;0.07502835538752459;4.900848691438608;-0.4870408637454456;-2.0794361877881937;-0.1293702294323868;-0.1369802429284097;-0.14459025642443274;-0.15220026992045554;-0.1598102834164785;0.8390039879364986;26.621487874186418;-2.645613701782645;-11.295530375188669;-0.702741139535948;-0.7440788536262941;-0.7854165677166403;-0.8267542818069868;-0.8680919958973334;4.557482978461314;0.0014638546961690117;-0.00020166609438977259;-0.00036003024485904104;-2.070409478649132e-06;0.6843100189035919;0.04296270836913552;-0.16671167521829147;-0.02730518798571727;0.17013232514177698;0.03144870252620721;-0.03659195247096951;-0.01232234124483652;0.1030245746691872;-0.03089018731740848;-0.01787964713295526;0.0008401596303297614;5.293005671077506;-0.5499226671249356;-1.2298586731478982;-0.059511307148358214;25.632122888468817;-2.663077702698043;-5.955763247682054;-0.28819185787299717;47.66402704195263;-4.952106705657401;-11.07499607926322;-0.5359050659478812;0.005021156899810958;-0.0005216786389413412;-0.0011666931316949994;-5.645480641322303e-05;0.025935727788279735;-0.002694621068912344;-0.00602630749842475;-0.00029160540502694114;0.019054820415879;-0.001979721601649893;-0.004427491223332476;-0.00021424070573407912;0.21308037788863513;-0.022138221079338435;-0.049510385423528425;-0.0023957449894886442;1.1574559945298442;-0.12025516826284749;-0.26894119940925404;-0.013013724806221259;-0.1377637376971525;-0.245946708919444;-0.0014143545012134796;0.06278252134605714;-0.24362009997369105;-0.03990178023327191;-0.29983319432860694;-0.1735474006116207;0.008154943934760432;-0.10389610389610389;-0.23235544217687074;-0.011243386243386244;-0.10389610389610326;-0.23235544217687046;-0.011243386243386291;-0.10389610389610357;-0.2323554421768706;-0.011243386243386267;-0.10389610389609254;-0.23235544217686654;-0.011243386243387157;-0.1038961038961102;-0.23235544217687296;-0.01124338624338572;-0.10389610389611054;-0.2323554421768732;-0.01124338624338571;-0.1038961038961026;-0.2323554421768703;-0.011243386243386347;-0.10389610389610954;-0.23235544217687282;-0.011243386243385781;1.6762082436346248;1.3685304680134802;0.8960633919777607;1.524861878453038;1.5641936332544064;1.00951503990178;1.8990825688073385;1.1052861511577101;0.7737003058103971;1.6428571428571428;1.3983843537414964;0.9203042328042327;1.6428571428571423;1.3983843537414966;0.9203042328042326;1.6428571428571428;1.3983843537414964;0.9203042328042327;1.6428571428571432;1.3983843537414964;0.9203042328042327;1.6428571428571417;1.3983843537414955;0.9203042328042321;1.6428571428571421;1.3983843537414964;0.9203042328042325;1.6428571428571432;1.398384353741497;0.920304232804233;1.6428571428571421;1.398384353741496;0.9203042328042325;0.1906922883142432;-0.1875538401946081;2.177191169072613;0.9871447154965202;2.177191169072613;0.9871447154965202;2.0257030619768215;1.3243602028077945;6.191366476080226;5.813159942499892;12.202366476080204;11.824159942499866;20.77089275219576;20.392686218615417;2.9373664760802223;2.5591599424998877;2.741366476080217;2.363159942499885;2.691366476080222;2.3131599424998868;1.8613664760802164;1.483159942499886;11.451666476080236;11.073459942499865;2.447472887876344;33.25076460311705;16.625382301558517;26.723216980603127;33.250764603117034;4.7501092290167195;16.6253824747719;2.6036422648710276;0.37194889498157535;0.6002363918884336;17.222989163766545;2.4604270233952206;2.489570126742441;33.25076460311705;16.625382301558517;26.723216980603127;33.250764603117034;4.7501092290167195;16.6253824747719;2.6036422648710276;0.37194889498157535;0.6002363918884336;17.222989163766545;2.4604270233952206;2.489570126742441;33.25076460311705;16.625382301558517;26.723216980603127;33.250764603117034;4.7501092290167195;16.6253824747719;2.6036422648710276;0.37194889498157535;0.6002363918884336;17.222989163766545;2.4604270233952206;2.489570126742441;33.25076460311705;16.625382301558517;26.723216980603127;33.250764603117034;4.7501092290167195;16.6253824747719;2.6036422648710276;0.37194889498157535;0.6002363918884336;17.222989163766545;2.4604270233952206;2.489570126742441;33.25076460311705;16.625382301558517;26.723216980603127;33.250764603117034;4.7501092290167195;16.6253824747719;2.6036422648710276;0.37194889498157535;0.6002363918884336;17.222989163766545;2.4604270233952206;2.489570126742441;33.25076460311705;16.625382301558517;26.723216980603127;33.250764603117034;4.7501092290167195;16.6253824747719;2.6036422648710276;0.37194889498157535;0.6002363918884336;17.222989163766545;2.4604270233952206;2.489570126742441;33.25076460311705;16.625382301558517;26.723216980603127;33.250764603117034;4.7501092290167195;16.6253824747719;2.6036422648710276;0.37194889498157535;0.6002363918884336;17.222989163766545;2.4604270233952206;2.489570126742441;33.25076460311705;16.625382301558517;26.723216980603127;33.250764603117034;4.7501092290167195;16.6253824747719;2.6036422648710276;0.37194889498157535;0.6002363918884336;17.222989163766545;2.4604270233952206;2.489570126742441;19.219280948873624;22.0;6.0;22.0;22.0;0.16200928599069161;0.06604190004670636;2.0;5.0;0.0;0.0;0.0;0.0;0.0;0.0;0.0;0.0;0.0;0.0;0.0;0.0;0.0;0.0;0.0;0.0;5.535533905932738;3.414213562373095;2.060660171779821;1.2071067811865475;0.6767766952966369;0.3535533905932738;0.1767766952966369;0.0;0.7907905579903911;0.5690355937288492;5.535533905932738;3.414213562373095;2.060660171779821;1.2071067811865475;0.6767766952966369;0.3535533905932738;0.1767766952966369;0.0;0.7907905579903911;0.5690355937288492;9.666666666666663;8.34276912829906;11.334622430286997;22.10269482884195;20.803921568627455;21.08;13.38843592814371;26.322317167393408;0.4202898550724636;0.3627290925347418;0.49280967088204336;0.9609867316887805;0.9045183290707589;0.9165217391304347;0.5821059099192918;1.1444485724953655;33.25076460311705;16.625382301558517;26.723216980603127;33.250764603117034;4.7501092290167195;16.6253824747719;2.6036422648710276;0.37194889498157535;0.6002363918884336;17.222989163766545;2.4604270233952206;2.489570126742441;2.0;5.0;0.0;0.0;4.491388888888888;7.008611111111112;0.0;0.0;2.245694444444444;2.245694444444444;54.0;3.5;0.2857142857142857;0.0;0.0;3.0;0.42857142857142855;3.0;0.42857142857142855;6.6041209674185675;0.9434458524883668;3.414213562373095;0.48774479462472786;6.6041209674185675;0.9434458524883668;3.414213562373095;0.48774479462472786;0.0;0.0;0.0;0.0;0.42173913043478256;0.7;0.42173913043478256;0.42173913043478256;0.7;-3.0;-0.42857142857142855;0.7142857142857144;0.00028571428571444457;6.0;0.8865408928220899;1.1492297615162819;2.0242600666933592;2.5661902165503228;2.8057456515210593;2.8057456515210593;20.39044053490807;26.432284514874482;46.55798153394726;59.022374980657425;64.53214998498436;64.53214998498436;0.19598292262472913;0.2540541663141084;0.4474925039951959;0.56729414595819;0.6202514033800706;0.6202514033800706;0.1988013201316891;0.25770767662706323;0.4539278185662432;0.5754523078289724;0.6291711346789151;0.6291711346789151;3.637021063234923;3.374332194540731;2.499301889363654;1.9573717395066903;1.7178163045359538;1.7178163045359538;6.640762870645904;9.795918872531843;13.00042102684267;14.864600843389994;15.106072721840498;15.106072721840498;27.765075162887893;23.862714211800487;22.511665695127338;20.03452107189308;19.368506234025666;19.368506234025666;7.0;1.0;0.0;-2.599192278361068;109.49000000000004;46.92890371420919;45.95158251401129;0.0;0.0;45.95158251401129;0.0;45.95158251401129;0.0;0.0;32.10410811463005;0.0;13.847474399381248;0.0;0.0;7.008611111111112;4.491388888888888;0.16666666666666669;12.83378877709787;1.8333983967282672;12.83378877709787;1.8333983967282672;5.0;4.0;3.0;2.0;1.0;0.0;0.0;0.0;0.0;28.0;1.9459101490553132;1.791759469228055;1.6094379124341003;1.3862943611198906;1.0986122886681098;0.6931471805599453;0.0;0.0;0.0;0.0;3.367295829986474;22.358688;16.051312;4.0;0.6666666666666666;2.976700000000002;34.432999999999986;0.5;0.22222222222222232;0.125;0.08000000000000002;0.05555555555555555;0.0;0.0;0.0;0.0;0.0;0.08333333333333333;0.04444444444444447;0.03125;0.026666666666666672;0.027777777777777776;0.0;0.0;0.0;0.0;0.0;0.21347222222222223;6.0;3.0;1.0;0.5;129.62835551474285;3.584962500721156;6.0;3.1354942159291497;3.713572066704308;4.31748811353631;4.919980925828125;5.53338948872752;6.142037405587356;6.7580945044277305;7.368339686311381;7.98514393119862;62.8735403382505;2.5649493574615367;3.4965075614664802;4.574710978503383;5.720311776607412;6.900730664045173;30.257210338083983;100.12520051199999;4.353269587478261;56.0;4.0;22.0;20.0;3.25;2.0