boiling_point;SMILES;IUPAC_name;InChIKey;SpAbs_A;SpMax_A;SpDiam_A;SpAD_A;SpMAD_A;LogEE_A;VE1_A;VE2_A;VE3_A;VR1_A;VR2_A;VR3_A;nAtom;nHeavyAtom;nH;nC;ATS0dv;ATS1dv;ATS2dv;ATS3dv;ATS4dv;ATS5dv;ATS6dv;ATS7dv;ATS8dv;ATS0d;ATS1d;ATS2d;ATS3d;ATS4d;ATS5d;ATS6d;ATS7d;ATS8d;ATS0s;ATS1s;ATS2s;ATS3s;ATS4s;ATS5s;ATS6s;ATS7s;ATS8s;ATS0Z;ATS1Z;ATS2Z;ATS3Z;ATS4Z;ATS5Z;ATS6Z;ATS7Z;ATS8Z;ATS0m;ATS1m;ATS2m;ATS3m;ATS4m;ATS5m;ATS6m;ATS7m;ATS8m;ATS0v;ATS1v;ATS2v;ATS3v;ATS4v;ATS5v;ATS6v;ATS7v;ATS8v;ATS0se;ATS1se;ATS2se;ATS3se;ATS4se;ATS5se;ATS6se;ATS7se;ATS8se;ATS0pe;ATS1pe;ATS2pe;ATS3pe;ATS4pe;ATS5pe;ATS6pe;ATS7pe;ATS8pe;ATS0are;ATS1are;ATS2are;ATS3are;ATS4are;ATS5are;ATS6are;ATS7are;ATS8are;ATS0p;ATS1p;ATS2p;ATS3p;ATS4p;ATS5p;ATS6p;ATS7p;ATS8p;ATS0i;ATS1i;ATS2i;ATS3i;ATS4i;ATS5i;ATS6i;ATS7i;ATS8i;AATS0dv;AATS1dv;AATS2dv;AATS3dv;AATS0d;AATS1d;AATS2d;AATS3d;AATS0s;AATS1s;AATS2s;AATS3s;AATS0Z;AATS1Z;AATS2Z;AATS3Z;AATS0m;AATS1m;AATS2m;AATS3m;AATS0v;AATS1v;AATS2v;AATS3v;AATS0se;AATS1se;AATS2se;AATS3se;AATS0pe;AATS1pe;AATS2pe;AATS3pe;AATS0are;AATS1are;AATS2are;AATS3are;AATS0p;AATS1p;AATS2p;AATS3p;AATS0i;AATS1i;AATS2i;AATS3i;ATSC0c;ATSC1c;ATSC2c;ATSC3c;ATSC4c;ATSC5c;ATSC6c;ATSC7c;ATSC8c;ATSC0dv;ATSC1dv;ATSC2dv;ATSC3dv;ATSC4dv;ATSC5dv;ATSC6dv;ATSC7dv;ATSC8dv;ATSC0d;ATSC1d;ATSC2d;ATSC3d;ATSC4d;ATSC5d;ATSC6d;ATSC7d;ATSC8d;ATSC0s;ATSC1s;ATSC2s;ATSC3s;ATSC4s;ATSC5s;ATSC6s;ATSC7s;ATSC8s;ATSC0Z;ATSC1Z;ATSC2Z;ATSC3Z;ATSC4Z;ATSC5Z;ATSC6Z;ATSC7Z;ATSC8Z;ATSC0m;ATSC1m;ATSC2m;ATSC3m;ATSC4m;ATSC5m;ATSC6m;ATSC7m;ATSC8m;ATSC0v;ATSC1v;ATSC2v;ATSC3v;ATSC4v;ATSC5v;ATSC6v;ATSC7v;ATSC8v;ATSC0se;ATSC1se;ATSC2se;ATSC3se;ATSC4se;ATSC5se;ATSC6se;ATSC7se;ATSC8se;ATSC0pe;ATSC1pe;ATSC2pe;ATSC3pe;ATSC4pe;ATSC5pe;ATSC6pe;ATSC7pe;ATSC8pe;ATSC0are;ATSC1are;ATSC2are;ATSC3are;ATSC4are;ATSC5are;ATSC6are;ATSC7are;ATSC8are;ATSC0p;ATSC1p;ATSC2p;ATSC3p;ATSC4p;ATSC5p;ATSC6p;ATSC7p;ATSC8p;ATSC0i;ATSC1i;ATSC2i;ATSC3i;ATSC4i;ATSC5i;ATSC6i;ATSC7i;ATSC8i;AATSC0c;AATSC1c;AATSC2c;AATSC3c;AATSC0dv;AATSC1dv;AATSC2dv;AATSC3dv;AATSC0d;AATSC1d;AATSC2d;AATSC3d;AATSC0s;AATSC1s;AATSC2s;AATSC3s;AATSC0Z;AATSC1Z;AATSC2Z;AATSC3Z;AATSC0m;AATSC1m;AATSC2m;AATSC3m;AATSC0v;AATSC1v;AATSC2v;AATSC3v;AATSC0se;AATSC1se;AATSC2se;AATSC3se;AATSC0pe;AATSC1pe;AATSC2pe;AATSC3pe;AATSC0are;AATSC1are;AATSC2are;AATSC3are;AATSC0p;AATSC1p;AATSC2p;AATSC3p;AATSC0i;AATSC1i;AATSC2i;AATSC3i;MATS1c;MATS2c;MATS3c;MATS1dv;MATS2dv;MATS3dv;MATS1s;MATS2s;MATS3s;MATS1Z;MATS2Z;MATS3Z;MATS1m;MATS2m;MATS3m;MATS1v;MATS2v;MATS3v;MATS1se;MATS2se;MATS3se;MATS1pe;MATS2pe;MATS3pe;MATS1are;MATS2are;MATS3are;MATS1p;MATS2p;MATS3p;MATS1i;MATS2i;MATS3i;GATS1c;GATS2c;GATS3c;GATS1dv;GATS2dv;GATS3dv;GATS1s;GATS2s;GATS3s;GATS1Z;GATS2Z;GATS3Z;GATS1m;GATS2m;GATS3m;GATS1v;GATS2v;GATS3v;GATS1se;GATS2se;GATS3se;GATS1pe;GATS2pe;GATS3pe;GATS1are;GATS2are;GATS3are;GATS1p;GATS2p;GATS3p;GATS1i;GATS2i;GATS3i;BCUTc-1h;BCUTc-1l;BCUTdv-1h;BCUTdv-1l;BCUTd-1h;BCUTd-1l;BCUTs-1h;BCUTs-1l;BCUTZ-1h;BCUTZ-1l;BCUTm-1h;BCUTm-1l;BCUTv-1h;BCUTv-1l;BCUTse-1h;BCUTse-1l;BCUTpe-1h;BCUTpe-1l;BCUTare-1h;BCUTare-1l;BCUTp-1h;BCUTp-1l;BCUTi-1h;BCUTi-1l;BalabanJ;SpAbs_DzZ;SpMax_DzZ;SpDiam_DzZ;SpAD_DzZ;SpMAD_DzZ;LogEE_DzZ;VE1_DzZ;VE2_DzZ;VE3_DzZ;VR1_DzZ;VR2_DzZ;VR3_DzZ;SpAbs_Dzm;SpMax_Dzm;SpDiam_Dzm;SpAD_Dzm;SpMAD_Dzm;LogEE_Dzm;VE1_Dzm;VE2_Dzm;VE3_Dzm;VR1_Dzm;VR2_Dzm;VR3_Dzm;SpAbs_Dzv;SpMax_Dzv;SpDiam_Dzv;SpAD_Dzv;SpMAD_Dzv;LogEE_Dzv;VE1_Dzv;VE2_Dzv;VE3_Dzv;VR1_Dzv;VR2_Dzv;VR3_Dzv;SpAbs_Dzse;SpMax_Dzse;SpDiam_Dzse;SpAD_Dzse;SpMAD_Dzse;LogEE_Dzse;VE1_Dzse;VE2_Dzse;VE3_Dzse;VR1_Dzse;VR2_Dzse;VR3_Dzse;SpAbs_Dzpe;SpMax_Dzpe;SpDiam_Dzpe;SpAD_Dzpe;SpMAD_Dzpe;LogEE_Dzpe;VE1_Dzpe;VE2_Dzpe;VE3_Dzpe;VR1_Dzpe;VR2_Dzpe;VR3_Dzpe;SpAbs_Dzare;SpMax_Dzare;SpDiam_Dzare;SpAD_Dzare;SpMAD_Dzare;LogEE_Dzare;VE1_Dzare;VE2_Dzare;VE3_Dzare;VR1_Dzare;VR2_Dzare;VR3_Dzare;SpAbs_Dzp;SpMax_Dzp;SpDiam_Dzp;SpAD_Dzp;SpMAD_Dzp;LogEE_Dzp;VE1_Dzp;VE2_Dzp;VE3_Dzp;VR1_Dzp;VR2_Dzp;VR3_Dzp;SpAbs_Dzi;SpMax_Dzi;SpDiam_Dzi;SpAD_Dzi;SpMAD_Dzi;LogEE_Dzi;VE1_Dzi;VE2_Dzi;VE3_Dzi;VR1_Dzi;VR2_Dzi;VR3_Dzi;BertzCT;nBonds;nBondsO;nBondsS;nBondsKS;RNCG;RPCG;C1SP3;C2SP3;C3SP3;C4SP3;Xc-3d;Xc-4d;Xc-5d;Xc-6d;Xc-3dv;Xc-4dv;Xc-5dv;Xc-6dv;Xpc-4d;Xpc-5d;Xpc-6d;Xpc-4dv;Xpc-5dv;Xpc-6dv;Xp-0d;Xp-1d;Xp-2d;Xp-3d;Xp-4d;Xp-5d;Xp-6d;Xp-7d;AXp-0d;AXp-1d;Xp-0dv;Xp-1dv;Xp-2dv;Xp-3dv;Xp-4dv;Xp-5dv;Xp-6dv;Xp-7dv;AXp-0dv;AXp-1dv;SZ;Sm;Sv;Sse;Spe;Sare;Sp;Si;MZ;Mm;Mv;Mse;Mpe;Mare;Mp;Mi;SpAbs_D;SpMax_D;SpDiam_D;SpAD_D;SpMAD_D;LogEE_D;VE1_D;VE2_D;VE3_D;VR1_D;VR2_D;VR3_D;NsCH3;NssCH2;NsssCH;NssssC;SsCH3;SssCH2;SsssCH;SssssC;MAXsCH3;MINsCH3;ECIndex;ETA_alpha;ETA_shape_p;ETA_shape_y;ETA_shape_x;ETA_beta;AETA_beta;ETA_beta_s;AETA_beta_s;ETA_eta;AETA_eta;ETA_eta_L;AETA_eta_L;ETA_eta_R;AETA_eta_R;ETA_eta_RL;AETA_eta_RL;ETA_eta_B;AETA_eta_B;ETA_eta_BR;AETA_eta_BR;ETA_epsilon_1;ETA_epsilon_2;ETA_epsilon_3;ETA_epsilon_4;ETA_epsilon_5;ETA_dBeta;AETA_dBeta;ETA_psi_1;ETA_dPsi_B;fragCpx;IC0;IC1;IC2;IC3;IC4;IC5;TIC0;TIC1;TIC2;TIC3;TIC4;TIC5;SIC0;SIC1;SIC2;SIC3;SIC4;SIC5;BIC0;BIC1;BIC2;BIC3;BIC4;BIC5;CIC0;CIC1;CIC2;CIC3;CIC4;CIC5;MIC0;MIC1;MIC2;MIC3;MIC4;MIC5;ZMIC0;ZMIC1;ZMIC2;ZMIC3;ZMIC4;ZMIC5;Kier1;Lipinski;GhoseFilter;FilterItLogS;VMcGowan;LabuteASA;PEOE_VSA6;PEOE_VSA7;SMR_VSA4;SMR_VSA5;SlogP_VSA4;SlogP_VSA5;EState_VSA3;EState_VSA4;EState_VSA5;EState_VSA7;EState_VSA8;VSA_EState4;VSA_EState5;VSA_EState7;VSA_EState8;MDEC-11;MID;AMID;MID_C;AMID_C;MPC2;MPC3;MPC4;MPC5;MPC6;MPC7;MPC8;MPC9;MPC10;TMPC10;piPC1;piPC2;piPC3;piPC4;piPC5;piPC6;piPC7;piPC8;piPC9;piPC10;TpiPC10;apol;bpol;nRot;RotRatio;SLogP;SMR;GGI1;GGI2;GGI3;GGI4;GGI5;GGI6;GGI7;GGI8;GGI9;GGI10;JGI1;JGI2;JGI3;JGI4;JGI5;JGI6;JGI7;JGI8;JGI9;JGI10;JGT10;Diameter;Radius;TopoShapeIndex;PetitjeanIndex;Vabc;VAdjMat;MWC01;MWC02;MWC03;MWC04;MWC05;MWC06;MWC07;MWC08;MWC09;MWC10;TMWC10;SRW02;SRW04;SRW06;SRW08;SRW10;TSRW10;MW;AMW;WPath;WPol;Zagreb1;Zagreb2;mZagreb1;mZagreb2
164.0;CCCCCC(C)C(C)C;2,3-dimethyloctane;YPMNDMUOGQJCLW-UHFFFAOYSA-N;11.239560682063159;2.08862151498481;4.177243029969619;11.239560682063159;1.1239560682063159;3.1240793267213256;2.8027196501121323;0.2802719650112132;1.0305902493825114;38.704667641923926;3.8704667641923924;3.655960203665253;32.0;10.0;22.0;10.0;38.0;38.0;34.0;26.0;20.0;15.0;8.0;2.0;0.0;60.0;72.0;126.0;140.0;130.0;113.0;78.0;57.0;36.0;50.55555555555556;60.19444444444444;93.83333333333333;123.58333333333331;130.33333333333331;106.0;76.33333333333333;66.0;48.0;382.0;456.0;580.0;606.0;510.0;386.0;304.0;215.0;96.0;1464.9946180000002;1564.733025;1870.5392259999999;1837.356705;1416.7571099999996;1086.9080929999998;871.8622119999998;554.0394739999999;169.670592;4919.011394973762;6335.857675895377;8633.553884985815;9563.102336233656;8665.556564156832;6654.923755926646;5088.618011214776;3856.692252820428;2122.84926278855;223.21136800000002;224.452548;424.90007199999997;568.359108;626.359128;558.684212;374.86696000000006;311.958344;246.65472;171.505;181.9425;333.20500000000004;439.3425;477.91499999999996;420.37249999999995;284.95000000000005;236.52500000000003;183.48000000000002;168.98000000000002;177.25;326.94000000000005;432.45000000000005;471.78000000000003;416.25;281.52000000000004;233.82000000000002;182.16000000000003;37.670483906678;49.59807482;72.863313017584;85.20734816547001;82.17600302365801;65.12729730245;48.102736155772;38.074783011527;24.033241436375995;5336.131905433478;4509.8452544938;9432.792615526585;13119.82576947927;14958.45452550026;13861.040622197852;9053.567730722772;7569.1456629957265;6275.494221136776;1.1875;1.2258064516129032;0.5666666666666667;0.32098765432098764;1.875;2.3225806451612905;2.1;1.728395061728395;1.5798611111111112;1.9417562724014337;1.5638888888888889;1.5257201646090532;11.9375;14.709677419354838;9.666666666666666;7.481481481481482;45.781081812500005;50.47525887096774;31.175653766666663;22.68341611111111;153.71910609293008;204.3825056740444;143.89256474976358;118.06299180535379;6.975355250000001;7.240404774193548;7.081667866666666;7.016779111111111;5.35953125;5.8691129032258065;5.553416666666667;5.423981481481481;5.280625000000001;5.717741935483871;5.449000000000001;5.3388888888888895;1.1772026220836875;1.5999378974193548;1.2143885502930667;1.051942569944074;166.7541220447962;145.47887917721934;157.21321025877643;161.97315764789224;0.04508345561417047;-0.007221618159178558;-0.007514481249110711;-0.007248474102640476;-0.013356428315779455;0.010179555395921542;0.0018308450750093765;-0.005377840944812085;-0.0035016633171248064;27.875;7.30859375;-11.140625;-12.49609375;-2.1484375;3.50390625;-5.2890625;-4.01171875;4.640625;10.0;2.9375;-5.25;-3.4375;0.625;-0.4375;-2.625;-0.1875;2.25;3.8333333333333335;-1.6822916666666659;0.18750000000000036;0.18229166666666718;-1.677083333333333;0.7239583333333325;0.5104166666666665;-0.005208333333333148;-0.9375000000000003;171.875;-11.81640625;-25.390625;-45.99609375;-52.1484375;41.50390625;-2.5390625;-27.63671875;-5.859375;832.3288118749999;-57.222605816406116;-122.95766539062487;-222.74253999609363;-252.53612814843746;200.98849150390612;-12.295766539062527;-133.83468963671876;-28.37484585937507;1547.7509673946556;-106.40787900838225;-228.64502927421023;-414.19926456981966;-469.60171397087856;373.7466824674593;-22.8645029274211;-248.87132032539077;-52.764237524817986;0.1630474999999998;-0.011209515625000697;-0.024086562500000533;-0.04363373437500027;-0.049470093749999874;0.03937226562500046;-0.00240865624999987;-0.02621729687499983;-0.005558437499999637;0.8421874999999983;-0.057900390625000686;-0.12441406250000042;-0.22538085937499994;-0.2555273437499994;0.20336914062500014;-0.012441406249999842;-0.13541992187499957;-0.028710937499999534;0.6187499999999992;-0.042539062500000294;-0.09140625000000019;-0.16558593749999995;-0.18773437499999973;0.14941406250000006;-0.009140624999999934;-0.09949218749999982;-0.0210937499999998;6.919166958336874;-0.475692728385663;-1.0221496642997678;-1.8516634303276536;-2.0993381566772102;1.6708215666438497;-0.10221496642997602;-1.112570596141667;-0.23588069176148263;37.58502473308684;-2.5839704503997742;-5.5523331992060525;-10.058265141638604;-11.403638186061567;9.075929267932938;-0.5552333199205912;-6.043501136058839;-1.281307661355207;0.0014088579879428273;-0.0002329554244896309;-0.0001252413541518452;-8.948733460049971e-05;0.87109375;0.2357610887096774;-0.18567708333333333;-0.15427276234567902;0.3125;0.09475806451612903;-0.0875;-0.04243827160493827;0.11979166666666667;-0.05426747311827954;0.003125000000000006;0.0022505144032921873;5.37109375;-0.3811743951612903;-0.4231770833333333;-0.5678530092592593;26.010275371093748;-1.845890510206649;-2.049294423177081;-2.749907901186341;48.36721773108299;-3.432512226076847;-3.810750487903504;-5.1135711675286375;0.005095234374999993;-0.00036159727822582895;-0.00040144270833334224;-0.000538688078703707;0.026318359374999947;-0.0018677545362903447;-0.0020735677083333405;-0.0027824797453703696;0.019335937499999976;-0.0013722278225806546;-0.001523437500000003;-0.002044270833333333;0.2162239674480273;-0.015344926722118162;-0.017035827738329463;-0.02286004234972412;1.1745320229089637;-0.08335388549676691;-0.09253888665343421;-0.12417611285973584;-0.16535053673492353;-0.08889565536319165;-0.0635176400789454;0.27064950094025747;-0.21315396113602392;-0.1771023639484028;-0.4530154277699857;0.026086956521739178;0.01878690284487391;-0.07096774193548387;-0.07878787878787878;-0.10572390572390573;-0.07096774193548372;-0.07878787878787871;-0.10572390572390566;-0.07096774193548366;-0.0787878787878787;-0.10572390572390569;-0.07096774193548838;-0.07878787878788064;-0.10572390572390651;-0.07096774193548486;-0.07878787878787921;-0.1057239057239059;-0.07096774193548444;-0.07878787878787905;-0.10572390572390583;-0.07096774193548432;-0.07878787878787898;-0.10572390572390582;-0.07096774193548536;-0.07878787878787939;-0.10572390572390597;1.6949214910227104;1.1856041260196735;1.1104146241401394;1.3632286995515697;1.8720478325859493;1.3729723744671427;2.0652173913043477;0.831159420289855;0.9734299516908211;1.6;1.2775757575757576;1.169023569023569;1.6000000000000003;1.277575757575758;1.1690235690235693;1.6000000000000005;1.2775757575757578;1.169023569023569;1.6;1.2775757575757576;1.1690235690235693;1.6;1.2775757575757576;1.1690235690235689;1.6000000000000003;1.2775757575757576;1.169023569023569;1.6;1.2775757575757578;1.169023569023569;1.5999999999999999;1.2775757575757574;1.169023569023569;0.2170114897822488;-0.2214872236030667;3.1134288287691807;0.9871394298127099;3.1134288287691807;0.9871394298127099;2.0382197214888462;1.1925205329765147;6.221659453770201;5.784201780041373;12.232659453770195;11.795201780041362;20.801185729885717;20.363728056156887;2.967659453770201;2.530201780041368;2.771659453770201;2.3342017800413672;2.7216594537702004;2.2842017800413656;1.8916594537701998;1.4542017800413667;11.481959453770195;11.04450178004136;3.129601941780824;59.41868501022569;29.70934250511284;45.98105404368397;59.41868501022569;5.941868501022569;29.709342505113295;3.111095764662401;0.3111095764662401;1.134975000039733;31.425897589657815;3.1425897589657814;3.447632316985115;59.41868501022569;29.70934250511284;45.98105404368397;59.41868501022569;5.941868501022569;29.709342505113295;3.111095764662401;0.3111095764662401;1.134975000039733;31.425897589657815;3.1425897589657814;3.447632316985115;59.41868501022569;29.70934250511284;45.98105404368397;59.41868501022569;5.941868501022569;29.709342505113295;3.111095764662401;0.3111095764662401;1.134975000039733;31.425897589657815;3.1425897589657814;3.447632316985115;59.41868501022569;29.70934250511284;45.98105404368397;59.41868501022569;5.941868501022569;29.709342505113295;3.111095764662401;0.3111095764662401;1.134975000039733;31.425897589657815;3.1425897589657814;3.447632316985115;59.41868501022569;29.70934250511284;45.98105404368397;59.41868501022569;5.941868501022569;29.709342505113295;3.111095764662401;0.3111095764662401;1.134975000039733;31.425897589657815;3.1425897589657814;3.447632316985115;59.41868501022569;29.70934250511284;45.98105404368397;59.41868501022569;5.941868501022569;29.709342505113295;3.111095764662401;0.3111095764662401;1.134975000039733;31.425897589657815;3.1425897589657814;3.447632316985115;59.41868501022569;29.70934250511284;45.98105404368397;59.41868501022569;5.941868501022569;29.709342505113295;3.111095764662401;0.3111095764662401;1.134975000039733;31.425897589657815;3.1425897589657814;3.447632316985115;59.41868501022569;29.70934250511284;45.98105404368397;59.41868501022569;5.941868501022569;29.709342505113295;3.111095764662401;0.3111095764662401;1.134975000039733;31.425897589657815;3.1425897589657814;3.447632316985115;64.43856189774723;31.0;9.0;31.0;31.0;0.11835071921416633;0.054754023229896524;4.0;4.0;2.0;0.0;0.5690355937288492;0.0;0.23570226039551584;0.0;0.5690355937288492;0.0;0.23570226039551584;0.0;1.2071067811865475;0.6178511301977578;0.6035533905932737;1.2071067811865475;0.6178511301977578;0.6035533905932737;7.983127663125442;4.680739212552622;3.7170827358303655;2.4010905245443834;1.0496461760604292;0.607710728323662;0.3943375672974064;0.16666666666666666;0.7983127663125442;0.5200821347280691;7.983127663125442;4.680739212552622;3.7170827358303655;2.4010905245443834;1.0496461760604292;0.607710728323662;0.3943375672974064;0.16666666666666666;0.7983127663125442;0.5200821347280691;13.666666666666668;11.846307551411208;15.96010584164462;30.766205389657685;28.98039215686275;29.360000000000003;18.784099401197608;36.568186105165935;0.42708333333333337;0.37019711098160024;0.49875330755139435;0.9614439184268027;0.9056372549019609;0.9175000000000001;0.5870031062874252;1.1427558157864355;59.41868501022569;29.70934250511284;45.98105404368397;59.41868501022569;5.941868501022569;29.709342505113295;3.111095764662401;0.3111095764662401;1.134975000039733;31.425897589657815;3.1425897589657814;3.447632316985115;4.0;4.0;2.0;0.0;9.257532123960695;5.614314058956916;1.794820483749055;0.0;2.361435185185185;2.2639295162509447;98.0;5.0;0.4;0.2;0.0;4.5;0.45;4.5;0.45;12.027350554581286;1.2027350554581286;4.680739212552621;0.4680739212552621;12.027350554581286;1.2027350554581286;4.680739212552621;0.4680739212552621;0.2334743498204741;0.02334743498204741;0.2334743498204741;0.02334743498204741;0.425;0.7;0.425;0.425;0.7;-4.5;-0.45;0.7142857142857143;0.00028571428571433355;9.0;0.8960382325345574;1.3716407621868583;2.6320488277869583;3.5223683589017414;3.9056390622295662;3.9056390622295662;28.673223441105836;43.892504389979464;84.22556248918266;112.71578748485572;124.98044999134612;124.98044999134612;0.17920764650691148;0.27432815243737163;0.5264097655573916;0.7044736717803483;0.7811278124459132;0.7811278124459132;0.1808644987797396;0.2768644349661926;0.5312766517282842;0.7109868358500065;0.788349677230407;0.788349677230407;4.103961767465442;3.6283592378131417;2.3679511722130417;1.4776316410982586;1.0943609377704338;1.0943609377704338;6.673151904630568;12.385613888284354;17.52266686883723;20.055047305772952;20.4413841747274;20.4413841747274;39.639944988972836;29.17609676811088;24.318044526787848;18.905356636771323;17.45037578003305;17.45037578003305;10.0;1.0;0.0;-3.119502638111995;151.76000000000002;66.023730057399;53.37823529046652;11.835812092322787;11.835812092322787;53.37823529046652;11.835812092322787;53.37823529046652;0.0;11.835812092322787;25.683286491704038;0.0;27.694948798762496;0.0;1.794820483749055;5.614314058956916;9.257532123960695;1.437301717259084;18.489140214922504;1.8489140214922504;18.489140214922504;1.8489140214922504;10.0;9.0;6.0;5.0;4.0;2.0;0.0;0.0;0.0;55.0;2.302585092994046;2.3978952727983707;2.302585092994046;1.9459101490553132;1.791759469228055;1.6094379124341003;1.0986122886681098;0.0;0.0;0.0;4.02535169073515;31.369446;22.070553999999998;5.0;0.5555555555555556;3.858800000000003;48.14400000000003;2.0;1.1111111111111116;0.375;0.24000000000000005;0.16666666666666669;0.0816326530612245;0.0;0.0;0.0;0.0;0.22222222222222224;0.11111111111111116;0.041666666666666664;0.04000000000000001;0.03333333333333333;0.020408163265306124;0.0;0.0;0.0;0.0;0.4687414965986395;7.0;4.0;0.75;0.42857142857142855;181.5163111863147;4.169925001442312;9.0;3.6635616461296463;4.343805421853684;5.0689042022202315;5.783825182329737;6.51471269087253;7.240649694255466;7.974188669286011;8.704668113450987;9.43946599496794;77.73378161536624;2.9444389791664403;4.07753744390572;5.37989735354046;6.755768921984255;8.16876982367527;37.32641252227215;142.172150704;4.4428797095;143.0;9.0;38.0;38.0;5.222222222222222;2.527777777777778