boiling_point;SMILES;IUPAC_name;InChIKey;SpAbs_A;SpMax_A;SpDiam_A;SpAD_A;SpMAD_A;LogEE_A;VE1_A;VE2_A;VE3_A;VR1_A;VR2_A;VR3_A;nAtom;nHeavyAtom;nH;nC;ATS0dv;ATS1dv;ATS2dv;ATS3dv;ATS4dv;ATS5dv;ATS6dv;ATS7dv;ATS8dv;ATS0d;ATS1d;ATS2d;ATS3d;ATS4d;ATS5d;ATS6d;ATS7d;ATS8d;ATS0s;ATS1s;ATS2s;ATS3s;ATS4s;ATS5s;ATS6s;ATS7s;ATS8s;ATS0Z;ATS1Z;ATS2Z;ATS3Z;ATS4Z;ATS5Z;ATS6Z;ATS7Z;ATS8Z;ATS0m;ATS1m;ATS2m;ATS3m;ATS4m;ATS5m;ATS6m;ATS7m;ATS8m;ATS0v;ATS1v;ATS2v;ATS3v;ATS4v;ATS5v;ATS6v;ATS7v;ATS8v;ATS0se;ATS1se;ATS2se;ATS3se;ATS4se;ATS5se;ATS6se;ATS7se;ATS8se;ATS0pe;ATS1pe;ATS2pe;ATS3pe;ATS4pe;ATS5pe;ATS6pe;ATS7pe;ATS8pe;ATS0are;ATS1are;ATS2are;ATS3are;ATS4are;ATS5are;ATS6are;ATS7are;ATS8are;ATS0p;ATS1p;ATS2p;ATS3p;ATS4p;ATS5p;ATS6p;ATS7p;ATS8p;ATS0i;ATS1i;ATS2i;ATS3i;ATS4i;ATS5i;ATS6i;ATS7i;ATS8i;AATS0dv;AATS1dv;AATS2dv;AATS3dv;AATS0d;AATS1d;AATS2d;AATS3d;AATS0s;AATS1s;AATS2s;AATS3s;AATS0Z;AATS1Z;AATS2Z;AATS3Z;AATS0m;AATS1m;AATS2m;AATS3m;AATS0v;AATS1v;AATS2v;AATS3v;AATS0se;AATS1se;AATS2se;AATS3se;AATS0pe;AATS1pe;AATS2pe;AATS3pe;AATS0are;AATS1are;AATS2are;AATS3are;AATS0p;AATS1p;AATS2p;AATS3p;AATS0i;AATS1i;AATS2i;AATS3i;ATSC0c;ATSC1c;ATSC2c;ATSC3c;ATSC4c;ATSC5c;ATSC6c;ATSC7c;ATSC8c;ATSC0dv;ATSC1dv;ATSC2dv;ATSC3dv;ATSC4dv;ATSC5dv;ATSC6dv;ATSC7dv;ATSC8dv;ATSC0d;ATSC1d;ATSC2d;ATSC3d;ATSC4d;ATSC5d;ATSC6d;ATSC7d;ATSC8d;ATSC0s;ATSC1s;ATSC2s;ATSC3s;ATSC4s;ATSC5s;ATSC6s;ATSC7s;ATSC8s;ATSC0Z;ATSC1Z;ATSC2Z;ATSC3Z;ATSC4Z;ATSC5Z;ATSC6Z;ATSC7Z;ATSC8Z;ATSC0m;ATSC1m;ATSC2m;ATSC3m;ATSC4m;ATSC5m;ATSC6m;ATSC7m;ATSC8m;ATSC0v;ATSC1v;ATSC2v;ATSC3v;ATSC4v;ATSC5v;ATSC6v;ATSC7v;ATSC8v;ATSC0se;ATSC1se;ATSC2se;ATSC3se;ATSC4se;ATSC5se;ATSC6se;ATSC7se;ATSC8se;ATSC0pe;ATSC1pe;ATSC2pe;ATSC3pe;ATSC4pe;ATSC5pe;ATSC6pe;ATSC7pe;ATSC8pe;ATSC0are;ATSC1are;ATSC2are;ATSC3are;ATSC4are;ATSC5are;ATSC6are;ATSC7are;ATSC8are;ATSC0p;ATSC1p;ATSC2p;ATSC3p;ATSC4p;ATSC5p;ATSC6p;ATSC7p;ATSC8p;ATSC0i;ATSC1i;ATSC2i;ATSC3i;ATSC4i;ATSC5i;ATSC6i;ATSC7i;ATSC8i;AATSC0c;AATSC1c;AATSC2c;AATSC3c;AATSC0dv;AATSC1dv;AATSC2dv;AATSC3dv;AATSC0d;AATSC1d;AATSC2d;AATSC3d;AATSC0s;AATSC1s;AATSC2s;AATSC3s;AATSC0Z;AATSC1Z;AATSC2Z;AATSC3Z;AATSC0m;AATSC1m;AATSC2m;AATSC3m;AATSC0v;AATSC1v;AATSC2v;AATSC3v;AATSC0se;AATSC1se;AATSC2se;AATSC3se;AATSC0pe;AATSC1pe;AATSC2pe;AATSC3pe;AATSC0are;AATSC1are;AATSC2are;AATSC3are;AATSC0p;AATSC1p;AATSC2p;AATSC3p;AATSC0i;AATSC1i;AATSC2i;AATSC3i;MATS1c;MATS2c;MATS3c;MATS1dv;MATS2dv;MATS3dv;MATS1s;MATS2s;MATS3s;MATS1Z;MATS2Z;MATS3Z;MATS1m;MATS2m;MATS3m;MATS1v;MATS2v;MATS3v;MATS1se;MATS2se;MATS3se;MATS1pe;MATS2pe;MATS3pe;MATS1are;MATS2are;MATS3are;MATS1p;MATS2p;MATS3p;MATS1i;MATS2i;MATS3i;GATS1c;GATS2c;GATS3c;GATS1dv;GATS2dv;GATS3dv;GATS1s;GATS2s;GATS3s;GATS1Z;GATS2Z;GATS3Z;GATS1m;GATS2m;GATS3m;GATS1v;GATS2v;GATS3v;GATS1se;GATS2se;GATS3se;GATS1pe;GATS2pe;GATS3pe;GATS1are;GATS2are;GATS3are;GATS1p;GATS2p;GATS3p;GATS1i;GATS2i;GATS3i;BCUTc-1h;BCUTc-1l;BCUTdv-1h;BCUTdv-1l;BCUTd-1h;BCUTd-1l;BCUTs-1h;BCUTs-1l;BCUTZ-1h;BCUTZ-1l;BCUTm-1h;BCUTm-1l;BCUTv-1h;BCUTv-1l;BCUTse-1h;BCUTse-1l;BCUTpe-1h;BCUTpe-1l;BCUTare-1h;BCUTare-1l;BCUTp-1h;BCUTp-1l;BCUTi-1h;BCUTi-1l;BalabanJ;SpAbs_DzZ;SpMax_DzZ;SpDiam_DzZ;SpAD_DzZ;SpMAD_DzZ;LogEE_DzZ;VE1_DzZ;VE2_DzZ;VE3_DzZ;VR1_DzZ;VR2_DzZ;VR3_DzZ;SpAbs_Dzm;SpMax_Dzm;SpDiam_Dzm;SpAD_Dzm;SpMAD_Dzm;LogEE_Dzm;VE1_Dzm;VE2_Dzm;VE3_Dzm;VR1_Dzm;VR2_Dzm;VR3_Dzm;SpAbs_Dzv;SpMax_Dzv;SpDiam_Dzv;SpAD_Dzv;SpMAD_Dzv;LogEE_Dzv;VE1_Dzv;VE2_Dzv;VE3_Dzv;VR1_Dzv;VR2_Dzv;VR3_Dzv;SpAbs_Dzse;SpMax_Dzse;SpDiam_Dzse;SpAD_Dzse;SpMAD_Dzse;LogEE_Dzse;VE1_Dzse;VE2_Dzse;VE3_Dzse;VR1_Dzse;VR2_Dzse;VR3_Dzse;SpAbs_Dzpe;SpMax_Dzpe;SpDiam_Dzpe;SpAD_Dzpe;SpMAD_Dzpe;LogEE_Dzpe;VE1_Dzpe;VE2_Dzpe;VE3_Dzpe;VR1_Dzpe;VR2_Dzpe;VR3_Dzpe;SpAbs_Dzare;SpMax_Dzare;SpDiam_Dzare;SpAD_Dzare;SpMAD_Dzare;LogEE_Dzare;VE1_Dzare;VE2_Dzare;VE3_Dzare;VR1_Dzare;VR2_Dzare;VR3_Dzare;SpAbs_Dzp;SpMax_Dzp;SpDiam_Dzp;SpAD_Dzp;SpMAD_Dzp;LogEE_Dzp;VE1_Dzp;VE2_Dzp;VE3_Dzp;VR1_Dzp;VR2_Dzp;VR3_Dzp;SpAbs_Dzi;SpMax_Dzi;SpDiam_Dzi;SpAD_Dzi;SpMAD_Dzi;LogEE_Dzi;VE1_Dzi;VE2_Dzi;VE3_Dzi;VR1_Dzi;VR2_Dzi;VR3_Dzi;BertzCT;nBonds;nBondsO;nBondsS;nBondsKS;RNCG;RPCG;C1SP3;C2SP3;C3SP3;C4SP3;Xc-3d;Xc-4d;Xc-5d;Xc-6d;Xc-3dv;Xc-4dv;Xc-5dv;Xc-6dv;Xpc-4d;Xpc-5d;Xpc-6d;Xpc-4dv;Xpc-5dv;Xpc-6dv;Xp-0d;Xp-1d;Xp-2d;Xp-3d;Xp-4d;Xp-5d;Xp-6d;Xp-7d;AXp-0d;AXp-1d;Xp-0dv;Xp-1dv;Xp-2dv;Xp-3dv;Xp-4dv;Xp-5dv;Xp-6dv;Xp-7dv;AXp-0dv;AXp-1dv;SZ;Sm;Sv;Sse;Spe;Sare;Sp;Si;MZ;Mm;Mv;Mse;Mpe;Mare;Mp;Mi;SpAbs_D;SpMax_D;SpDiam_D;SpAD_D;SpMAD_D;LogEE_D;VE1_D;VE2_D;VE3_D;VR1_D;VR2_D;VR3_D;NsCH3;NssCH2;NsssCH;NssssC;SsCH3;SssCH2;SsssCH;SssssC;MAXsCH3;MINsCH3;ECIndex;ETA_alpha;ETA_shape_p;ETA_shape_y;ETA_shape_x;ETA_beta;AETA_beta;ETA_beta_s;AETA_beta_s;ETA_eta;AETA_eta;ETA_eta_L;AETA_eta_L;ETA_eta_R;AETA_eta_R;ETA_eta_RL;AETA_eta_RL;ETA_eta_B;AETA_eta_B;ETA_eta_BR;AETA_eta_BR;ETA_epsilon_1;ETA_epsilon_2;ETA_epsilon_3;ETA_epsilon_4;ETA_epsilon_5;ETA_dBeta;AETA_dBeta;ETA_psi_1;ETA_dPsi_B;fragCpx;IC0;IC1;IC2;IC3;IC4;IC5;TIC0;TIC1;TIC2;TIC3;TIC4;TIC5;SIC0;SIC1;SIC2;SIC3;SIC4;SIC5;BIC0;BIC1;BIC2;BIC3;BIC4;BIC5;CIC0;CIC1;CIC2;CIC3;CIC4;CIC5;MIC0;MIC1;MIC2;MIC3;MIC4;MIC5;ZMIC0;ZMIC1;ZMIC2;ZMIC3;ZMIC4;ZMIC5;Kier1;Lipinski;GhoseFilter;FilterItLogS;VMcGowan;LabuteASA;PEOE_VSA6;PEOE_VSA7;SMR_VSA4;SMR_VSA5;SlogP_VSA4;SlogP_VSA5;EState_VSA3;EState_VSA4;EState_VSA5;EState_VSA7;EState_VSA8;VSA_EState4;VSA_EState5;VSA_EState7;VSA_EState8;MDEC-11;MID;AMID;MID_C;AMID_C;MPC2;MPC3;MPC4;MPC5;MPC6;MPC7;MPC8;MPC9;MPC10;TMPC10;piPC1;piPC2;piPC3;piPC4;piPC5;piPC6;piPC7;piPC8;piPC9;piPC10;TpiPC10;apol;bpol;nRot;RotRatio;SLogP;SMR;GGI1;GGI2;GGI3;GGI4;GGI5;GGI6;GGI7;GGI8;GGI9;GGI10;JGI1;JGI2;JGI3;JGI4;JGI5;JGI6;JGI7;JGI8;JGI9;JGI10;JGT10;Diameter;Radius;TopoShapeIndex;PetitjeanIndex;Vabc;VAdjMat;MWC01;MWC02;MWC03;MWC04;MWC05;MWC06;MWC07;MWC08;MWC09;MWC10;TMWC10;SRW02;SRW04;SRW06;SRW08;SRW10;TSRW10;MW;AMW;WPath;WPol;Zagreb1;Zagreb2;mZagreb1;mZagreb2
118.2;CCC(C)(CC)CC;3-ethyl-3-methylpentane;GIEZWIDCIFCQPS-UHFFFAOYSA-N;9.291502622129181;2.188901059316734;4.377802118633468;9.291502622129181;1.1614378277661477;2.913552613142566;2.5599250069136286;0.31999062586420357;0.7168344125738149;20.391897070911195;2.5489871338638994;2.791994068223876;26.0;8.0;18.0;8.0;32.0;34.0;30.0;15.0;3.0;0.0;0.0;0.0;0.0;50.0;58.0;105.0;117.0;99.0;81.0;27.0;0.0;0.0;42.3125;50.125;75.0;102.75;129.0;99.0;27.0;0.0;0.0;306.0;360.0;483.0;558.0;426.0;171.0;27.0;0.0;0.0;1172.4021199999997;1227.7764309999998;1604.188161;1752.5214089999997;1044.4145069999997;281.93961599999994;27.433728000000002;0.0;0.0;3947.6426137513827;5029.877406914644;7031.587075100369;8501.677704839383;7710.420623960792;4023.534993817942;839.261099635117;0.0;0.0;181.25648000000004;180.90098799999998;339.464772;445.03174799999994;565.8218039999999;551.3806079999999;181.398528;0.0;0.0;139.14000000000001;146.4975;265.76250000000005;347.60249999999996;433.98749999999995;405.9;130.68;0.0;0.0;137.12;142.75;260.85;341.37;427.94999999999993;403.92;130.68;0.0;0.0;30.314232287281996;39.566097580000005;58.494357012734994;73.190727447282;75.15521402547;48.054410585487005;12.004548430923002;0.0;0.0;4342.872585156481;3643.7663514622;7589.855130283335;9982.078658910883;13277.794919216672;14406.017936359887;4992.776604654722;0.0;0.0;1.2307692307692308;1.36;0.625;0.23809523809523808;1.9230769230769231;2.32;2.1875;1.8571428571428572;1.6274038461538463;2.005;1.5625;1.630952380952381;11.76923076923077;14.4;10.0625;8.857142857142858;45.09238923076922;49.111057239999994;33.4205866875;27.817800142857138;151.83240822120703;201.19509627658576;146.49139739792435;134.9472651561807;6.971403076923078;7.236039519999999;7.07218275;7.063995999999999;5.351538461538462;5.8599;5.536718750000001;5.517499999999999;5.273846153846154;5.71;5.434375;5.418571428571429;1.1659320110493074;1.5826439032000001;1.2186324377653124;1.1617575785282857;167.03356096755698;145.750654058488;158.1219818809028;158.44569299858546;0.03582751326148999;-0.008937314525664075;0.003170230416200637;-0.0012058283467080034;-0.035416519512370764;0.010123672272811756;0.014352003064985457;0.0;0.0;24.461538461538467;11.094674556213022;-7.7751479289940795;-24.887573964497044;-12.284023668639055;13.792899408284022;7.828402366863905;0.0;0.0;10.615384615384615;4.792899408284024;-6.905325443786984;-9.106508875739646;0.159763313609469;4.313609467455624;1.437869822485208;0.0;0.0;3.540865384615385;-1.7388128698224863;0.03994082840236668;1.6173261834319521;-2.9902921597633147;-0.019138313609465607;1.320543639053256;0.0;0.0;138.46153846153845;-11.982248520710042;15.532544378698233;-41.27218934911242;-148.66863905325442;53.25443786982246;63.90532544378697;0.0;0.0;670.5194344615384;-58.02572028994064;75.21852630177528;-199.8663698875737;-719.9487517455619;257.8920901775143;309.4705082130175;0.0;0.0;1246.8595205864642;-107.90130466613653;139.8720616042507;-371.6600494055808;-1338.7754467835432;479.5613540717173;575.4736248860605;0.0;0.0;0.13135015384615373;-0.011366840236685242;0.01473479289940912;-0.039152449704140925;-0.14103301775147886;0.05051928994082617;0.06062314792899288;0.0;0.0;0.6784615384615371;-0.05871301775148016;0.0761094674556204;-0.20223372781065135;-0.7284763313609455;0.2609467455621315;0.31313609467455655;0.0;0.0;0.49846153846153785;-0.043136094674557014;0.0559171597633129;-0.14857988165680536;-0.5352071005917156;0.19171597633136236;0.23005917159763373;0.0;0.0;5.574042193009846;-0.48236903593354474;0.6252931947286678;-1.6614933459933194;-5.9849491495458285;2.1438623819268647;2.5726348583122367;0.0;0.0;30.278285659102124;-2.6202362589608286;3.3966025579120456;-9.02525822530935;-32.51033876858723;11.645494484270179;13.974593381124123;0.0;0.0;0.0013779812792880765;-0.000357492581026563;6.604646700417994e-05;-1.9140132487428624e-05;0.9408284023668642;0.44378698224852087;-0.16198224852071;-0.39504085657931814;0.40828402366863903;0.19171597633136095;-0.14386094674556218;-0.14454775993237534;0.1361871301775148;-0.06955251479289945;0.0008321005917159724;0.02567184418145956;5.325443786982248;-0.4792899408284017;0.3235946745562132;-0.6551141166525781;25.789209017751475;-2.3210288115976256;1.567052631286985;-3.172482061707519;47.9561354071717;-4.316052186645461;2.9140012834218894;-5.899365863580648;0.005051928994082836;-0.0004546736094674097;0.00030697485207102334;-0.0006214674556212845;0.026094674556212966;-0.0023485207100592065;0.0015856139053254251;-0.0032100591715976405;0.01917159763313607;-0.0017254437869822807;0.001164940828402352;-0.002358410819949291;0.21438623819268637;-0.01929476143734179;0.013026941556847247;-0.026372910253862212;1.1645494484270047;-0.10480945035843314;0.07076255328983429;-0.14325806706840238;-0.259432102888407;0.04792987248586014;-0.013889980056417912;0.47169811320754723;-0.17216981132075462;-0.41988619347109907;-0.5107128309572304;0.006109979633401192;0.18850418646752654;-0.08999999999999987;0.06076388888888893;-0.12301587301587302;-0.08999999999999972;0.060763888888889006;-0.12301587301587287;-0.09000000000000016;0.060763888888888846;-0.12301587301587306;-0.08999999999999099;0.060763888888892385;-0.12301587301586972;-0.09000000000000151;0.06076388888888829;-0.12301587301587355;-0.09000000000000179;0.060763888888888194;-0.12301587301587368;-0.09000000000000007;0.06076388888888882;-0.12301587301587301;-0.09000000000000233;0.06076388888888797;-0.12301587301587387;1.7970461164092375;0.9764634094615441;1.092902772290517;1.2264150943396224;2.299528301886792;1.9466906259359082;2.118126272912423;0.8273930753564153;0.7459670901626093;1.625;1.1284722222222223;1.2896825396825398;1.6250000000000007;1.1284722222222223;1.2896825396825402;1.6249999999999998;1.128472222222222;1.2896825396825395;1.625;1.1284722222222219;1.2896825396825395;1.6249999999999998;1.128472222222222;1.2896825396825398;1.6250000000000002;1.1284722222222223;1.28968253968254;1.6250000000000002;1.1284722222222225;1.2896825396825398;1.625;1.1284722222222225;1.28968253968254;0.22063345029505693;-0.23717553782661788;4.018936220878601;0.9872569003884853;4.018936220878601;0.9872569003884853;2.0318958553090827;1.147851674319789;6.230118200652124;5.774641051052278;12.241118200652139;11.785641051052284;20.809644476767673;20.354167327167815;2.976118200652122;2.5206410510522783;2.7801182006521223;2.3246410510522777;2.7301182006521234;2.2746410510522823;1.9001182006521267;1.4446410510522794;11.490418200652107;11.034941051052266;3.5832125652604643;33.340986994748164;16.670493497374075;21.906561474873865;33.34098699474815;4.167623374343519;16.670493664098558;2.7768275559557827;0.34710344449447283;0.7981655578391927;23.119088238979664;2.889886029872458;2.917515055682055;33.340986994748164;16.670493497374075;21.906561474873865;33.34098699474815;4.167623374343519;16.670493664098558;2.7768275559557827;0.34710344449447283;0.7981655578391927;23.119088238979664;2.889886029872458;2.917515055682055;33.340986994748164;16.670493497374075;21.906561474873865;33.34098699474815;4.167623374343519;16.670493664098558;2.7768275559557827;0.34710344449447283;0.7981655578391927;23.119088238979664;2.889886029872458;2.917515055682055;33.340986994748164;16.670493497374075;21.906561474873865;33.34098699474815;4.167623374343519;16.670493664098558;2.7768275559557827;0.34710344449447283;0.7981655578391927;23.119088238979664;2.889886029872458;2.917515055682055;33.340986994748164;16.670493497374075;21.906561474873865;33.34098699474815;4.167623374343519;16.670493664098558;2.7768275559557827;0.34710344449447283;0.7981655578391927;23.119088238979664;2.889886029872458;2.917515055682055;33.340986994748164;16.670493497374075;21.906561474873865;33.34098699474815;4.167623374343519;16.670493664098558;2.7768275559557827;0.34710344449447283;0.7981655578391927;23.119088238979664;2.889886029872458;2.917515055682055;33.340986994748164;16.670493497374075;21.906561474873865;33.34098699474815;4.167623374343519;16.670493664098558;2.7768275559557827;0.34710344449447283;0.7981655578391927;23.119088238979664;2.889886029872458;2.917515055682055;33.340986994748164;16.670493497374075;21.906561474873865;33.34098699474815;4.167623374343519;16.670493664098558;2.7768275559557827;0.34710344449447283;0.7981655578391927;23.119088238979664;2.889886029872458;2.917515055682055;42.793987519471216;25.0;7.0;25.0;25.0;0.14745995009909615;0.061218030566255535;4.0;3.0;0.0;1.0;0.9267766952966369;0.1767766952966369;0.0;0.0;0.9267766952966369;0.1767766952966369;0.0;0.0;2.0303300858899105;1.8106601717798214;0.7071067811865476;2.0303300858899105;1.8106601717798214;0.7071067811865476;6.621320343559643;3.6819805153394642;2.871320343559643;2.5606601717798214;0.75;0.0;0.0;0.0;0.8276650429449554;0.5259972164770663;6.621320343559643;3.6819805153394642;2.871320343559643;2.5606601717798214;0.75;0.0;0.0;0.0;0.8276650429449554;0.5259972164770663;11.0;9.510615269336444;12.87645023407287;24.990531682447198;23.529411764705884;23.84;15.186990419161678;29.737606813317583;0.4230769230769231;0.36579289497447864;0.4952480859258796;0.9611742954787383;0.904977375565611;0.916923076923077;0.584115016121603;1.1437541082045224;33.340986994748164;16.670493497374075;21.906561474873865;33.34098699474815;4.167623374343519;16.670493664098558;2.7768275559557827;0.34710344449447283;0.7981655578391927;23.119088238979664;2.889886029872458;2.917515055682055;4.0;3.0;0.0;1.0;9.166666666666668;3.958333333333333;0.0;0.625;2.3541666666666665;2.2708333333333335;41.0;4.0;0.5;0.0;0.125;3.5;0.4375;3.5;0.4375;9.406854249492381;1.1758567811865477;3.681980515339464;0.460247564417433;9.406854249492381;1.1758567811865477;3.681980515339464;0.460247564417433;0.23223304703363112;0.02902913087920389;0.23223304703363112;0.02902913087920389;0.4230769230769231;0.7;0.4230769230769231;0.4230769230769231;0.7;-3.5;-0.4375;0.7142857142857143;0.00028571428571433355;7.0;0.8904916402194913;1.322995967059358;2.083551255936948;2.4579873133796246;2.4579873133796246;2.4579873133796246;23.152782645706775;34.39789514354331;54.172332654360645;63.90767014787024;63.90767014787024;63.90767014787024;0.1894485821789581;0.2814621708588937;0.44326730707673906;0.5229271006057489;0.5229271006057489;0.5229271006057489;0.19175693730143042;0.28489167471905225;0.44866834173821;0.5292987579572017;0.5292987579572017;0.5292987579572017;3.8099480779216;3.3774437510817337;2.6168884622041437;2.242452404761467;2.242452404761467;2.242452404761467;6.654519640635535;11.849329110309174;13.989275488178375;14.366707034080592;14.366707034080592;14.366707034080592;31.72521615294554;24.13720727697972;24.217796739793645;23.886345497520946;23.886345497520946;23.886345497520946;8.0;1.0;0.0;-2.634542200549686;123.58000000000004;53.293845828605804;46.95741366754052;5.41499046939678;5.41499046939678;46.95741366754052;5.41499046939678;46.95741366754052;5.41499046939678;0.0;19.26246486877803;0.0;27.694948798762496;0.625;0.0;3.958333333333333;9.166666666666668;1.7320508075688774;14.430140687119284;1.8037675858899105;14.430140687119284;1.8037675858899105;9.0;9.0;3.0;0.0;0.0;0.0;0.0;0.0;0.0;36.0;2.0794415416798357;2.302585092994046;2.302585092994046;1.3862943611198906;0.0;0.0;0.0;0.0;0.0;0.0;3.6109179126442243;25.362274;18.057726;3.0;0.42857142857142855;3.2227000000000023;38.98;3.0;1.3333333333333337;0.375;0.0;0.0;0.0;0.0;0.0;0.0;0.0;0.4285714285714285;0.1481481481481482;0.04166666666666667;0.0;0.0;0.0;0.0;0.0;0.0;0.0;0.6183862433862434;4.0;2.0;1.0;0.5;146.92434073860016;3.807354922057604;7.0;3.4965075614664802;4.23410650459726;5.030437921392435;5.7899601708972535;6.591673732008658;7.354362330421477;8.157370441186774;8.920656296853728;9.723942138688924;74.299017097513;2.70805020110221;3.9318256327243257;5.41610040220442;6.9650803456014065;8.528133131454572;35.54918971308694;114.14085057599999;4.3900327144615385;64.0;9.0;32.0;34.0;4.8125;2.125