boiling_point;SMILES;IUPAC_name;InChIKey;SpAbs_A;SpMax_A;SpDiam_A;SpAD_A;SpMAD_A;LogEE_A;VE1_A;VE2_A;VE3_A;VR1_A;VR2_A;VR3_A;nAtom;nHeavyAtom;nH;nC;ATS0dv;ATS1dv;ATS2dv;ATS3dv;ATS4dv;ATS5dv;ATS6dv;ATS7dv;ATS8dv;ATS0d;ATS1d;ATS2d;ATS3d;ATS4d;ATS5d;ATS6d;ATS7d;ATS8d;ATS0s;ATS1s;ATS2s;ATS3s;ATS4s;ATS5s;ATS6s;ATS7s;ATS8s;ATS0Z;ATS1Z;ATS2Z;ATS3Z;ATS4Z;ATS5Z;ATS6Z;ATS7Z;ATS8Z;ATS0m;ATS1m;ATS2m;ATS3m;ATS4m;ATS5m;ATS6m;ATS7m;ATS8m;ATS0v;ATS1v;ATS2v;ATS3v;ATS4v;ATS5v;ATS6v;ATS7v;ATS8v;ATS0se;ATS1se;ATS2se;ATS3se;ATS4se;ATS5se;ATS6se;ATS7se;ATS8se;ATS0pe;ATS1pe;ATS2pe;ATS3pe;ATS4pe;ATS5pe;ATS6pe;ATS7pe;ATS8pe;ATS0are;ATS1are;ATS2are;ATS3are;ATS4are;ATS5are;ATS6are;ATS7are;ATS8are;ATS0p;ATS1p;ATS2p;ATS3p;ATS4p;ATS5p;ATS6p;ATS7p;ATS8p;ATS0i;ATS1i;ATS2i;ATS3i;ATS4i;ATS5i;ATS6i;ATS7i;ATS8i;AATS0dv;AATS1dv;AATS2dv;AATS3dv;AATS0d;AATS1d;AATS2d;AATS3d;AATS0s;AATS1s;AATS2s;AATS3s;AATS0Z;AATS1Z;AATS2Z;AATS3Z;AATS0m;AATS1m;AATS2m;AATS3m;AATS0v;AATS1v;AATS2v;AATS3v;AATS0se;AATS1se;AATS2se;AATS3se;AATS0pe;AATS1pe;AATS2pe;AATS3pe;AATS0are;AATS1are;AATS2are;AATS3are;AATS0p;AATS1p;AATS2p;AATS3p;AATS0i;AATS1i;AATS2i;AATS3i;ATSC0c;ATSC1c;ATSC2c;ATSC3c;ATSC4c;ATSC5c;ATSC6c;ATSC7c;ATSC8c;ATSC0dv;ATSC1dv;ATSC2dv;ATSC3dv;ATSC4dv;ATSC5dv;ATSC6dv;ATSC7dv;ATSC8dv;ATSC0d;ATSC1d;ATSC2d;ATSC3d;ATSC4d;ATSC5d;ATSC6d;ATSC7d;ATSC8d;ATSC0s;ATSC1s;ATSC2s;ATSC3s;ATSC4s;ATSC5s;ATSC6s;ATSC7s;ATSC8s;ATSC0Z;ATSC1Z;ATSC2Z;ATSC3Z;ATSC4Z;ATSC5Z;ATSC6Z;ATSC7Z;ATSC8Z;ATSC0m;ATSC1m;ATSC2m;ATSC3m;ATSC4m;ATSC5m;ATSC6m;ATSC7m;ATSC8m;ATSC0v;ATSC1v;ATSC2v;ATSC3v;ATSC4v;ATSC5v;ATSC6v;ATSC7v;ATSC8v;ATSC0se;ATSC1se;ATSC2se;ATSC3se;ATSC4se;ATSC5se;ATSC6se;ATSC7se;ATSC8se;ATSC0pe;ATSC1pe;ATSC2pe;ATSC3pe;ATSC4pe;ATSC5pe;ATSC6pe;ATSC7pe;ATSC8pe;ATSC0are;ATSC1are;ATSC2are;ATSC3are;ATSC4are;ATSC5are;ATSC6are;ATSC7are;ATSC8are;ATSC0p;ATSC1p;ATSC2p;ATSC3p;ATSC4p;ATSC5p;ATSC6p;ATSC7p;ATSC8p;ATSC0i;ATSC1i;ATSC2i;ATSC3i;ATSC4i;ATSC5i;ATSC6i;ATSC7i;ATSC8i;AATSC0c;AATSC1c;AATSC2c;AATSC3c;AATSC0dv;AATSC1dv;AATSC2dv;AATSC3dv;AATSC0d;AATSC1d;AATSC2d;AATSC3d;AATSC0s;AATSC1s;AATSC2s;AATSC3s;AATSC0Z;AATSC1Z;AATSC2Z;AATSC3Z;AATSC0m;AATSC1m;AATSC2m;AATSC3m;AATSC0v;AATSC1v;AATSC2v;AATSC3v;AATSC0se;AATSC1se;AATSC2se;AATSC3se;AATSC0pe;AATSC1pe;AATSC2pe;AATSC3pe;AATSC0are;AATSC1are;AATSC2are;AATSC3are;AATSC0p;AATSC1p;AATSC2p;AATSC3p;AATSC0i;AATSC1i;AATSC2i;AATSC3i;MATS1c;MATS2c;MATS3c;MATS1dv;MATS2dv;MATS3dv;MATS1s;MATS2s;MATS3s;MATS1Z;MATS2Z;MATS3Z;MATS1m;MATS2m;MATS3m;MATS1v;MATS2v;MATS3v;MATS1se;MATS2se;MATS3se;MATS1pe;MATS2pe;MATS3pe;MATS1are;MATS2are;MATS3are;MATS1p;MATS2p;MATS3p;MATS1i;MATS2i;MATS3i;GATS1c;GATS2c;GATS3c;GATS1dv;GATS2dv;GATS3dv;GATS1s;GATS2s;GATS3s;GATS1Z;GATS2Z;GATS3Z;GATS1m;GATS2m;GATS3m;GATS1v;GATS2v;GATS3v;GATS1se;GATS2se;GATS3se;GATS1pe;GATS2pe;GATS3pe;GATS1are;GATS2are;GATS3are;GATS1p;GATS2p;GATS3p;GATS1i;GATS2i;GATS3i;BCUTc-1h;BCUTc-1l;BCUTdv-1h;BCUTdv-1l;BCUTd-1h;BCUTd-1l;BCUTs-1h;BCUTs-1l;BCUTZ-1h;BCUTZ-1l;BCUTm-1h;BCUTm-1l;BCUTv-1h;BCUTv-1l;BCUTse-1h;BCUTse-1l;BCUTpe-1h;BCUTpe-1l;BCUTare-1h;BCUTare-1l;BCUTp-1h;BCUTp-1l;BCUTi-1h;BCUTi-1l;BalabanJ;SpAbs_DzZ;SpMax_DzZ;SpDiam_DzZ;SpAD_DzZ;SpMAD_DzZ;LogEE_DzZ;VE1_DzZ;VE2_DzZ;VE3_DzZ;VR1_DzZ;VR2_DzZ;VR3_DzZ;SpAbs_Dzm;SpMax_Dzm;SpDiam_Dzm;SpAD_Dzm;SpMAD_Dzm;LogEE_Dzm;VE1_Dzm;VE2_Dzm;VE3_Dzm;VR1_Dzm;VR2_Dzm;VR3_Dzm;SpAbs_Dzv;SpMax_Dzv;SpDiam_Dzv;SpAD_Dzv;SpMAD_Dzv;LogEE_Dzv;VE1_Dzv;VE2_Dzv;VE3_Dzv;VR1_Dzv;VR2_Dzv;VR3_Dzv;SpAbs_Dzse;SpMax_Dzse;SpDiam_Dzse;SpAD_Dzse;SpMAD_Dzse;LogEE_Dzse;VE1_Dzse;VE2_Dzse;VE3_Dzse;VR1_Dzse;VR2_Dzse;VR3_Dzse;SpAbs_Dzpe;SpMax_Dzpe;SpDiam_Dzpe;SpAD_Dzpe;SpMAD_Dzpe;LogEE_Dzpe;VE1_Dzpe;VE2_Dzpe;VE3_Dzpe;VR1_Dzpe;VR2_Dzpe;VR3_Dzpe;SpAbs_Dzare;SpMax_Dzare;SpDiam_Dzare;SpAD_Dzare;SpMAD_Dzare;LogEE_Dzare;VE1_Dzare;VE2_Dzare;VE3_Dzare;VR1_Dzare;VR2_Dzare;VR3_Dzare;SpAbs_Dzp;SpMax_Dzp;SpDiam_Dzp;SpAD_Dzp;SpMAD_Dzp;LogEE_Dzp;VE1_Dzp;VE2_Dzp;VE3_Dzp;VR1_Dzp;VR2_Dzp;VR3_Dzp;SpAbs_Dzi;SpMax_Dzi;SpDiam_Dzi;SpAD_Dzi;SpMAD_Dzi;LogEE_Dzi;VE1_Dzi;VE2_Dzi;VE3_Dzi;VR1_Dzi;VR2_Dzi;VR3_Dzi;BertzCT;nBonds;nBondsO;nBondsS;nBondsKS;RNCG;RPCG;C1SP3;C2SP3;C3SP3;C4SP3;Xc-3d;Xc-4d;Xc-5d;Xc-6d;Xc-3dv;Xc-4dv;Xc-5dv;Xc-6dv;Xpc-4d;Xpc-5d;Xpc-6d;Xpc-4dv;Xpc-5dv;Xpc-6dv;Xp-0d;Xp-1d;Xp-2d;Xp-3d;Xp-4d;Xp-5d;Xp-6d;Xp-7d;AXp-0d;AXp-1d;Xp-0dv;Xp-1dv;Xp-2dv;Xp-3dv;Xp-4dv;Xp-5dv;Xp-6dv;Xp-7dv;AXp-0dv;AXp-1dv;SZ;Sm;Sv;Sse;Spe;Sare;Sp;Si;MZ;Mm;Mv;Mse;Mpe;Mare;Mp;Mi;SpAbs_D;SpMax_D;SpDiam_D;SpAD_D;SpMAD_D;LogEE_D;VE1_D;VE2_D;VE3_D;VR1_D;VR2_D;VR3_D;NsCH3;NssCH2;NsssCH;NssssC;SsCH3;SssCH2;SsssCH;SssssC;MAXsCH3;MINsCH3;ECIndex;ETA_alpha;ETA_shape_p;ETA_shape_y;ETA_shape_x;ETA_beta;AETA_beta;ETA_beta_s;AETA_beta_s;ETA_eta;AETA_eta;ETA_eta_L;AETA_eta_L;ETA_eta_R;AETA_eta_R;ETA_eta_RL;AETA_eta_RL;ETA_eta_B;AETA_eta_B;ETA_eta_BR;AETA_eta_BR;ETA_epsilon_1;ETA_epsilon_2;ETA_epsilon_3;ETA_epsilon_4;ETA_epsilon_5;ETA_dBeta;AETA_dBeta;ETA_psi_1;ETA_dPsi_B;fragCpx;IC0;IC1;IC2;IC3;IC4;IC5;TIC0;TIC1;TIC2;TIC3;TIC4;TIC5;SIC0;SIC1;SIC2;SIC3;SIC4;SIC5;BIC0;BIC1;BIC2;BIC3;BIC4;BIC5;CIC0;CIC1;CIC2;CIC3;CIC4;CIC5;MIC0;MIC1;MIC2;MIC3;MIC4;MIC5;ZMIC0;ZMIC1;ZMIC2;ZMIC3;ZMIC4;ZMIC5;Kier1;Lipinski;GhoseFilter;FilterItLogS;VMcGowan;LabuteASA;PEOE_VSA6;PEOE_VSA7;SMR_VSA4;SMR_VSA5;SlogP_VSA4;SlogP_VSA5;EState_VSA3;EState_VSA4;EState_VSA5;EState_VSA7;EState_VSA8;VSA_EState4;VSA_EState5;VSA_EState7;VSA_EState8;MDEC-11;MID;AMID;MID_C;AMID_C;MPC2;MPC3;MPC4;MPC5;MPC6;MPC7;MPC8;MPC9;MPC10;TMPC10;piPC1;piPC2;piPC3;piPC4;piPC5;piPC6;piPC7;piPC8;piPC9;piPC10;TpiPC10;apol;bpol;nRot;RotRatio;SLogP;SMR;GGI1;GGI2;GGI3;GGI4;GGI5;GGI6;GGI7;GGI8;GGI9;GGI10;JGI1;JGI2;JGI3;JGI4;JGI5;JGI6;JGI7;JGI8;JGI9;JGI10;JGT10;Diameter;Radius;TopoShapeIndex;PetitjeanIndex;Vabc;VAdjMat;MWC01;MWC02;MWC03;MWC04;MWC05;MWC06;MWC07;MWC08;MWC09;MWC10;TMWC10;SRW02;SRW04;SRW06;SRW08;SRW10;TSRW10;MW;AMW;WPath;WPol;Zagreb1;Zagreb2;mZagreb1;mZagreb2
242.5;CCCCCCCCCCCC(CCCC)CCCCCCCCCC;11-butyldocosane;HEUYLTACOIADBB-UHFFFAOYSA-N;32.289453584803006;2.1151670541085488;4.230334108217098;32.289453584803006;1.2419020609539617;4.07769874905857;3.723235461221884;0.14320136389314939;2.270104482941471;522.9219581311436;20.112383005043984;7.214943678323477;80.0;26.0;54.0;26.0;100.0;100.0;100.0;100.0;99.0;96.0;92.0;88.0;84.0;154.0;200.0;331.0;400.0;399.0;398.0;391.0;384.0;368.0;117.27777777777777;143.08333333333331;240.75;309.75;309.66666666666663;310.0833333333333;311.83333333333337;308.5833333333333;296.33333333333337;990.0;1224.0;1531.0;1600.0;1600.0;1600.0;1575.0;1520.0;1456.0;3805.734602000001;4260.3857769999995;4848.809808999999;4918.918224999999;4918.918224999999;4918.918224999999;4797.852215999999;4610.240062999999;4413.483333999999;12689.961644752802;16783.69982774125;23025.18025814394;25169.95862387813;25169.958623878134;25169.95862387813;24944.831210438908;24217.786565362156;23210.98822040703;558.8504719999999;572.865028;1108.548484;1572.1225000000002;1572.1225000000002;1572.1225;1572.098784;1569.6800600000001;1506.7951600000001;430.4250000000001;465.5025;873.6025;1207.5625;1207.5625;1207.5624999999998;1207.44;1202.6974999999998;1154.3949999999998;423.8600000000001;453.25;856.2900000000001;1190.2500000000002;1190.25;1190.25;1190.16;1186.1100000000001;1138.5;96.52049686184603;129.85389274;194.859931050319;225.53822148490002;225.53822148490002;225.5382214849;224.53179720005102;219.51178448429602;210.4902556249;13282.206467649448;11438.476478746601;24214.56088629172;36973.8788759649;36973.8788759649;36973.87887596491;36968.41196327646;37153.7156764561;35674.760521417506;1.25;1.2658227848101267;0.6410256410256411;0.4444444444444444;1.925;2.5316455696202533;2.121794871794872;1.7777777777777777;1.4659722222222222;1.811181434599156;1.5432692307692308;1.3766666666666667;12.375;15.49367088607595;9.814102564102564;7.111111111111111;47.571682525000014;53.928933886075946;31.082114160256406;21.861858777777776;158.62452055941003;212.4518965536867;147.59730934707653;111.86648277279168;6.9856308999999985;7.251456050632912;7.106080025641025;6.987211111111112;5.380312500000001;5.892436708860759;5.600016025641025;5.366944444444444;5.298250000000001;5.737341772151899;5.489038461538462;5.290000000000001;1.2065062107730753;1.6437201612658228;1.2491021221174294;1.0023920954884444;166.0275808456181;144.79084150312153;155.22154414289565;164.328350559844;0.11405575922286292;-0.006033753643429368;-0.050653597531742256;-0.0003807263423523952;0.0002343795784356923;0.0017479003206558215;-0.004902094131713327;0.0001121867889899127;-1.105527353382433e-05;68.75;5.859375;-26.5625;0.390625;-0.609375;-3.609375;-3.859375;-0.359375;-0.375;18.799999999999997;3.3099999999999974;-5.960000000000003;0.24999999999999878;-0.7500000000000009;-1.7500000000000009;-0.9500000000000004;-0.1499999999999998;-0.16000000000000003;6.043055555555554;-0.9862673611111119;-2.217291666666667;-0.002343749999999825;-0.08567708333333315;0.33098958333333356;-0.27734374999999994;0.010156250000000172;0.00875000000000016;438.75;-11.390625;-181.8125;0.390625;0.390625;0.390625;-24.609375;-0.859375;-0.875;2124.7084579499997;-55.160700350626634;-880.4525504525013;1.8916563906249024;1.8916563906248811;1.8916563906249024;-119.17435260937506;-4.161644059374922;-4.237310314999931;3950.9861058583583;-102.57367774824584;-1637.239114236747;3.5176158349877937;3.5176158349878115;3.5176158349877937;-221.60979760423479;-7.738754836973143;-7.879459470372751;0.4162157999999996;-0.010805602499997834;-0.1724746099999978;0.0003705625000001503;0.00037056250000015245;0.0003705625000001503;-0.02334543749999982;-0.0008152375000000916;-0.0008300600000000959;2.1498749999999953;-0.05581406249999414;-0.8908812499999929;0.001914062500000424;0.001914062500000424;0.0019140625000004102;-0.12058593749999934;-0.004210937500000213;-0.0042875000000002494;1.5794999999999981;-0.04100624999998906;-0.6545249999999893;0.0014062500000007541;0.001406250000000761;0.001406250000000768;-0.08859374999999912;-0.0030937500000004607;-0.0031500000000005135;17.662746199099946;-0.45855206478434096;-7.319220611564365;0.015725379450764243;0.015725379450764465;0.015725379450764243;-0.9906989053982352;-0.034595834791683266;-0.0352248499697142;95.94431768227982;-2.490862093674145;-39.75812252674491;0.0854205107570456;0.08542051075704582;0.08542051075704515;-5.381492177691949;-0.18792512366545133;-0.19134194409573357;0.0014256969902857865;-7.63766283978401e-05;-0.00032470254828039906;-1.6921170771217564e-06;0.859375;0.07416930379746836;-0.1702724358974359;0.001736111111111111;0.23499999999999996;0.04189873417721516;-0.038205128205128225;0.0011111111111111057;0.07553819444444443;-0.012484396976090025;-0.014213408119658122;-1.0416666666665889e-05;5.484375;-0.14418512658227847;-1.1654647435897436;0.001736111111111111;26.558855724374997;-0.6982367132990713;-5.643926605464752;0.008407361736110678;49.38732632322948;-1.2984009841550106;-10.495122527158633;0.015633848155501305;0.005202697499999995;-0.00013677977848098523;-0.0011056064743589604;1.6469444444451123e-06;0.02687343749999994;-0.0007065071202530904;-0.005710777243589698;8.50694444444633e-06;0.019743749999999977;-0.000519066455696064;-0.004195673076923008;6.250000000003352e-06;0.22078432748874932;-0.005804456516257481;-0.04691808084336131;6.989057533672997e-05;1.1993039710284976;-0.031529899919925886;-0.25485975978682635;0.0003796467144757582;-0.05357143131972953;-0.22775004120287243;-0.0011868700633102726;0.08630609896432681;-0.19813519813519814;0.00202020202020202;-0.16527264211050002;-0.18816187260223122;-0.00013789933348654453;-0.026290165530671858;-0.2125063919935715;0.00031655587211142766;-0.026290165530672645;-0.21250639199357182;0.0003165558721114114;-0.02629016553067186;-0.21250639199357146;0.0003165558721114222;-0.026290165530666616;-0.21250639199356902;0.00031655587211155636;-0.026290165530669155;-0.21250639199357024;0.0003165558721114985;-0.026290165530664874;-0.21250639199356824;0.0003165558721115978;-0.026290165530672746;-0.21250639199357188;0.0003165558721113999;-0.02629016553066735;-0.2125063919935694;0.0003165558721115392;1.566955381092629;1.4240646593779978;0.9769459199775283;1.4545454545454546;1.5394871794871794;1.0673777777777778;1.732934957481039;1.2360553718862155;0.8569983911744429;1.5384615384615383;1.4427642632770838;1.0003165558721114;1.538461538461539;1.442764263277084;1.0003165558721117;1.5384615384615383;1.4427642632770834;1.0003165558721114;1.538461538461538;1.4427642632770836;1.0003165558721112;1.5384615384615385;1.442764263277084;1.0003165558721117;1.5384615384615385;1.4427642632770838;1.0003165558721114;1.5384615384615388;1.442764263277084;1.0003165558721114;1.5384615384615394;1.4427642632770845;1.0003165558721119;0.22671667862369596;-0.21234839987657594;3.029595661355788;0.9871436102075691;3.029595661355788;0.9871436102075691;2.02748066826828;1.2130071081730895;6.227629550971926;5.789382529734669;12.238629550971899;11.80038252973467;20.807155827087477;20.368908805850214;2.9736295509719097;2.5353825297346746;2.777629550971916;2.3393825297346686;2.727629550971915;2.2893825297346733;1.8976295509719165;1.4593825297346747;11.487929550971923;11.04968252973467;3.5348895297825376;400.85969946288424;200.4298497314421;298.9104714856106;400.8596994628842;15.417680748572469;200.4298497314421;4.996601428305185;0.1921769780117379;2.5642694120120506;138.20906723511592;5.315733355196766;5.88427896372483;400.85969946288424;200.4298497314421;298.9104714856106;400.8596994628842;15.417680748572469;200.4298497314421;4.996601428305185;0.1921769780117379;2.5642694120120506;138.20906723511592;5.315733355196766;5.88427896372483;400.85969946288424;200.4298497314421;298.9104714856106;400.8596994628842;15.417680748572469;200.4298497314421;4.996601428305185;0.1921769780117379;2.5642694120120506;138.20906723511592;5.315733355196766;5.88427896372483;400.85969946288424;200.4298497314421;298.9104714856106;400.8596994628842;15.417680748572469;200.4298497314421;4.996601428305185;0.1921769780117379;2.5642694120120506;138.20906723511592;5.315733355196766;5.88427896372483;400.85969946288424;200.4298497314421;298.9104714856106;400.8596994628842;15.417680748572469;200.4298497314421;4.996601428305185;0.1921769780117379;2.5642694120120506;138.20906723511592;5.315733355196766;5.88427896372483;400.85969946288424;200.4298497314421;298.9104714856106;400.8596994628842;15.417680748572469;200.4298497314421;4.996601428305185;0.1921769780117379;2.5642694120120506;138.20906723511592;5.315733355196766;5.88427896372483;400.85969946288424;200.4298497314421;298.9104714856106;400.8596994628842;15.417680748572469;200.4298497314421;4.996601428305185;0.1921769780117379;2.5642694120120506;138.20906723511592;5.315733355196766;5.88427896372483;400.85969946288424;200.4298497314421;298.9104714856106;400.8596994628842;15.417680748572469;200.4298497314421;4.996601428305185;0.1921769780117379;2.5642694120120506;138.20906723511592;5.315733355196766;5.88427896372483;232.19280948873617;79.0;25.0;79.0;79.0;0.04635977413567313;0.021461708550860242;3.0;22.0;1.0;0.0;0.2041241452319315;0.0;0.0;0.0;0.2041241452319315;0.0;0.0;0.0;0.4330127018922193;0.6123724356957946;0.7515811254542948;0.4330127018922193;0.6123724356957946;0.7515811254542948;19.133699455293673;12.846065214951233;8.88890505706126;6.147777478867206;4.23638103376641;2.991973396579676;2.0110367662033033;1.3480487709058038;0.7359115175112951;0.5138426085980493;19.133699455293673;12.846065214951233;8.88890505706126;6.147777478867206;4.23638103376641;2.991973396579676;2.0110367662033033;1.3480487709058038;0.7359115175112951;0.5138426085980493;35.0;30.531845808009322;40.629350702218616;76.9715950473416;72.58823529411765;73.52000000000001;47.56097125748502;91.21282043995275;0.4375;0.3816480726001165;0.5078668837777327;0.9621449380917699;0.9073529411764707;0.9190000000000002;0.5945121407185627;1.1401602554994095;400.85969946288424;200.4298497314421;298.9104714856106;400.8596994628842;15.417680748572469;200.4298497314421;4.996601428305185;0.1921769780117379;2.5642694120120506;138.20906723511592;5.315733355196766;5.88427896372483;3.0;22.0;1.0;0.0;6.970758452842857;32.32128265803574;1.0412922224547403;0.0;2.353079172333876;2.308104638724034;766.0;13.0;0.11538461538461539;0.038461538461538464;0.0;12.5;0.4807692307692308;12.5;0.4807692307692308;40.92451626106191;1.5740198561946888;12.846065214951233;0.4940794313442782;40.92451626106191;1.5740198561946888;12.846065214951233;0.4940794313442782;0.06814834742186271;0.002621090285456258;0.06814834742186271;0.002621090285456258;0.43;0.7;0.43;0.43;0.7;-12.5;-0.4807692307692308;0.7142857142857143;0.00028571428571433355;25.0;0.9097361225311662;1.1515992420247207;1.9843158606434583;2.8115145006776245;3.4926423131235382;4.190311532225102;72.7788898024933;92.12793936197767;158.74526885147668;224.92116005420996;279.41138504988305;335.22492257800815;0.1439016877251235;0.18215949703003365;0.3138782711319042;0.4447242136384528;0.5524647323888562;0.6628217640776188;0.1443159524217652;0.1826838984458231;0.3147818650287406;0.4460044873055975;0.5540551698492248;0.6647298977580773;5.412191972356196;5.170328852862642;4.337612234243904;3.510413594209738;2.8292857817638244;2.131616562662261;6.7154159095466595;9.620433837783745;13.842921187157017;17.012186056996224;20.522314930914554;23.254915843597743;102.87809030582184;91.94884807584204;78.79036131569126;66.37326109183759;51.01323080766886;37.87120165881926;26.0;0.0;0.0;-9.943541317064453;377.20000000000005;167.8628038877448;162.02928730344414;5.917906046161393;5.917906046161393;162.02928730344414;5.917906046161393;162.02928730344414;0.0;5.917906046161393;141.25807570437226;0.0;20.771211599071872;0.0;1.0412922224547403;32.32128265803574;6.970758452842857;0.18293988071249923;50.68653739531508;1.9494822075121183;50.68653739531508;1.9494822075121183;25.0;25.0;25.0;25.0;24.0;23.0;22.0;21.0;20.0;261.0;3.258096538021482;3.258096538021482;3.258096538021482;3.258096538021482;3.258096538021482;3.2188758248682006;3.1780538303479458;3.1354942159291497;3.091042453358316;3.044522437723423;5.568344503761097;79.426822;54.173178;22.0;0.88;10.244499999999993;122.08600000000013;1.5;0.666666666666667;0.375;0.24000000000000005;0.16666666666666669;0.12244897959183673;0.09375;0.07407407407407406;0.06000000000000001;0.049586776859504134;0.060000000000000005;0.026666666666666675;0.015000000000000001;0.009600000000000003;0.006666666666666666;0.00510204081632653;0.004076086956521739;0.0033670033670033664;0.002857142857142858;0.0024793388429752063;0.13581494617330303;21.0;11.0;0.9090909090909091;0.47619047619047616;458.2520747680315;5.643856189774724;25.0;4.61512051684126;5.303304908059076;6.008813185442595;6.715383386334681;7.4318919168078;8.148156439921625;8.871645667501872;9.59430941973946;10.322954180280107;118.01157962092846;3.9318256327243257;5.017279836814924;6.240275845170769;7.534228326274089;8.87360810154911;57.59721774253322;366.4225517280015;4.5802818966000185;2485.0;25.0;100.0;100.0;8.61111111111111;6.75