boiling_point;SMILES;IUPAC_name;InChIKey;SpAbs_A;SpMax_A;SpDiam_A;SpAD_A;SpMAD_A;LogEE_A;VE1_A;VE2_A;VE3_A;VR1_A;VR2_A;VR3_A;nAtom;nHeavyAtom;nH;nC;ATS0dv;ATS1dv;ATS2dv;ATS3dv;ATS4dv;ATS5dv;ATS6dv;ATS7dv;ATS8dv;ATS0d;ATS1d;ATS2d;ATS3d;ATS4d;ATS5d;ATS6d;ATS7d;ATS8d;ATS0s;ATS1s;ATS2s;ATS3s;ATS4s;ATS5s;ATS6s;ATS7s;ATS8s;ATS0Z;ATS1Z;ATS2Z;ATS3Z;ATS4Z;ATS5Z;ATS6Z;ATS7Z;ATS8Z;ATS0m;ATS1m;ATS2m;ATS3m;ATS4m;ATS5m;ATS6m;ATS7m;ATS8m;ATS0v;ATS1v;ATS2v;ATS3v;ATS4v;ATS5v;ATS6v;ATS7v;ATS8v;ATS0se;ATS1se;ATS2se;ATS3se;ATS4se;ATS5se;ATS6se;ATS7se;ATS8se;ATS0pe;ATS1pe;ATS2pe;ATS3pe;ATS4pe;ATS5pe;ATS6pe;ATS7pe;ATS8pe;ATS0are;ATS1are;ATS2are;ATS3are;ATS4are;ATS5are;ATS6are;ATS7are;ATS8are;ATS0p;ATS1p;ATS2p;ATS3p;ATS4p;ATS5p;ATS6p;ATS7p;ATS8p;ATS0i;ATS1i;ATS2i;ATS3i;ATS4i;ATS5i;ATS6i;ATS7i;ATS8i;AATS0dv;AATS1dv;AATS2dv;AATS3dv;AATS0d;AATS1d;AATS2d;AATS3d;AATS0s;AATS1s;AATS2s;AATS3s;AATS0Z;AATS1Z;AATS2Z;AATS3Z;AATS0m;AATS1m;AATS2m;AATS3m;AATS0v;AATS1v;AATS2v;AATS3v;AATS0se;AATS1se;AATS2se;AATS3se;AATS0pe;AATS1pe;AATS2pe;AATS3pe;AATS0are;AATS1are;AATS2are;AATS3are;AATS0p;AATS1p;AATS2p;AATS3p;AATS0i;AATS1i;AATS2i;AATS3i;ATSC0c;ATSC1c;ATSC2c;ATSC3c;ATSC4c;ATSC5c;ATSC6c;ATSC7c;ATSC8c;ATSC0dv;ATSC1dv;ATSC2dv;ATSC3dv;ATSC4dv;ATSC5dv;ATSC6dv;ATSC7dv;ATSC8dv;ATSC0d;ATSC1d;ATSC2d;ATSC3d;ATSC4d;ATSC5d;ATSC6d;ATSC7d;ATSC8d;ATSC0s;ATSC1s;ATSC2s;ATSC3s;ATSC4s;ATSC5s;ATSC6s;ATSC7s;ATSC8s;ATSC0Z;ATSC1Z;ATSC2Z;ATSC3Z;ATSC4Z;ATSC5Z;ATSC6Z;ATSC7Z;ATSC8Z;ATSC0m;ATSC1m;ATSC2m;ATSC3m;ATSC4m;ATSC5m;ATSC6m;ATSC7m;ATSC8m;ATSC0v;ATSC1v;ATSC2v;ATSC3v;ATSC4v;ATSC5v;ATSC6v;ATSC7v;ATSC8v;ATSC0se;ATSC1se;ATSC2se;ATSC3se;ATSC4se;ATSC5se;ATSC6se;ATSC7se;ATSC8se;ATSC0pe;ATSC1pe;ATSC2pe;ATSC3pe;ATSC4pe;ATSC5pe;ATSC6pe;ATSC7pe;ATSC8pe;ATSC0are;ATSC1are;ATSC2are;ATSC3are;ATSC4are;ATSC5are;ATSC6are;ATSC7are;ATSC8are;ATSC0p;ATSC1p;ATSC2p;ATSC3p;ATSC4p;ATSC5p;ATSC6p;ATSC7p;ATSC8p;ATSC0i;ATSC1i;ATSC2i;ATSC3i;ATSC4i;ATSC5i;ATSC6i;ATSC7i;ATSC8i;AATSC0c;AATSC1c;AATSC2c;AATSC3c;AATSC0dv;AATSC1dv;AATSC2dv;AATSC3dv;AATSC0d;AATSC1d;AATSC2d;AATSC3d;AATSC0s;AATSC1s;AATSC2s;AATSC3s;AATSC0Z;AATSC1Z;AATSC2Z;AATSC3Z;AATSC0m;AATSC1m;AATSC2m;AATSC3m;AATSC0v;AATSC1v;AATSC2v;AATSC3v;AATSC0se;AATSC1se;AATSC2se;AATSC3se;AATSC0pe;AATSC1pe;AATSC2pe;AATSC3pe;AATSC0are;AATSC1are;AATSC2are;AATSC3are;AATSC0p;AATSC1p;AATSC2p;AATSC3p;AATSC0i;AATSC1i;AATSC2i;AATSC3i;MATS1c;MATS2c;MATS3c;MATS1dv;MATS2dv;MATS3dv;MATS1s;MATS2s;MATS3s;MATS1Z;MATS2Z;MATS3Z;MATS1m;MATS2m;MATS3m;MATS1v;MATS2v;MATS3v;MATS1se;MATS2se;MATS3se;MATS1pe;MATS2pe;MATS3pe;MATS1are;MATS2are;MATS3are;MATS1p;MATS2p;MATS3p;MATS1i;MATS2i;MATS3i;GATS1c;GATS2c;GATS3c;GATS1dv;GATS2dv;GATS3dv;GATS1s;GATS2s;GATS3s;GATS1Z;GATS2Z;GATS3Z;GATS1m;GATS2m;GATS3m;GATS1v;GATS2v;GATS3v;GATS1se;GATS2se;GATS3se;GATS1pe;GATS2pe;GATS3pe;GATS1are;GATS2are;GATS3are;GATS1p;GATS2p;GATS3p;GATS1i;GATS2i;GATS3i;BCUTc-1h;BCUTc-1l;BCUTdv-1h;BCUTdv-1l;BCUTd-1h;BCUTd-1l;BCUTs-1h;BCUTs-1l;BCUTZ-1h;BCUTZ-1l;BCUTm-1h;BCUTm-1l;BCUTv-1h;BCUTv-1l;BCUTse-1h;BCUTse-1l;BCUTpe-1h;BCUTpe-1l;BCUTare-1h;BCUTare-1l;BCUTp-1h;BCUTp-1l;BCUTi-1h;BCUTi-1l;BalabanJ;SpAbs_DzZ;SpMax_DzZ;SpDiam_DzZ;SpAD_DzZ;SpMAD_DzZ;LogEE_DzZ;VE1_DzZ;VE2_DzZ;VE3_DzZ;VR1_DzZ;VR2_DzZ;VR3_DzZ;SpAbs_Dzm;SpMax_Dzm;SpDiam_Dzm;SpAD_Dzm;SpMAD_Dzm;LogEE_Dzm;VE1_Dzm;VE2_Dzm;VE3_Dzm;VR1_Dzm;VR2_Dzm;VR3_Dzm;SpAbs_Dzv;SpMax_Dzv;SpDiam_Dzv;SpAD_Dzv;SpMAD_Dzv;LogEE_Dzv;VE1_Dzv;VE2_Dzv;VE3_Dzv;VR1_Dzv;VR2_Dzv;VR3_Dzv;SpAbs_Dzse;SpMax_Dzse;SpDiam_Dzse;SpAD_Dzse;SpMAD_Dzse;LogEE_Dzse;VE1_Dzse;VE2_Dzse;VE3_Dzse;VR1_Dzse;VR2_Dzse;VR3_Dzse;SpAbs_Dzpe;SpMax_Dzpe;SpDiam_Dzpe;SpAD_Dzpe;SpMAD_Dzpe;LogEE_Dzpe;VE1_Dzpe;VE2_Dzpe;VE3_Dzpe;VR1_Dzpe;VR2_Dzpe;VR3_Dzpe;SpAbs_Dzare;SpMax_Dzare;SpDiam_Dzare;SpAD_Dzare;SpMAD_Dzare;LogEE_Dzare;VE1_Dzare;VE2_Dzare;VE3_Dzare;VR1_Dzare;VR2_Dzare;VR3_Dzare;SpAbs_Dzp;SpMax_Dzp;SpDiam_Dzp;SpAD_Dzp;SpMAD_Dzp;LogEE_Dzp;VE1_Dzp;VE2_Dzp;VE3_Dzp;VR1_Dzp;VR2_Dzp;VR3_Dzp;SpAbs_Dzi;SpMax_Dzi;SpDiam_Dzi;SpAD_Dzi;SpMAD_Dzi;LogEE_Dzi;VE1_Dzi;VE2_Dzi;VE3_Dzi;VR1_Dzi;VR2_Dzi;VR3_Dzi;BertzCT;nBonds;nBondsO;nBondsS;nBondsKS;RNCG;RPCG;C1SP3;C2SP3;C3SP3;C4SP3;Xc-3d;Xc-4d;Xc-5d;Xc-6d;Xc-3dv;Xc-4dv;Xc-5dv;Xc-6dv;Xpc-4d;Xpc-5d;Xpc-6d;Xpc-4dv;Xpc-5dv;Xpc-6dv;Xp-0d;Xp-1d;Xp-2d;Xp-3d;Xp-4d;Xp-5d;Xp-6d;Xp-7d;AXp-0d;AXp-1d;Xp-0dv;Xp-1dv;Xp-2dv;Xp-3dv;Xp-4dv;Xp-5dv;Xp-6dv;Xp-7dv;AXp-0dv;AXp-1dv;SZ;Sm;Sv;Sse;Spe;Sare;Sp;Si;MZ;Mm;Mv;Mse;Mpe;Mare;Mp;Mi;SpAbs_D;SpMax_D;SpDiam_D;SpAD_D;SpMAD_D;LogEE_D;VE1_D;VE2_D;VE3_D;VR1_D;VR2_D;VR3_D;NsCH3;NssCH2;NsssCH;NssssC;SsCH3;SssCH2;SsssCH;SssssC;MAXsCH3;MINsCH3;ECIndex;ETA_alpha;ETA_shape_p;ETA_shape_y;ETA_shape_x;ETA_beta;AETA_beta;ETA_beta_s;AETA_beta_s;ETA_eta;AETA_eta;ETA_eta_L;AETA_eta_L;ETA_eta_R;AETA_eta_R;ETA_eta_RL;AETA_eta_RL;ETA_eta_B;AETA_eta_B;ETA_eta_BR;AETA_eta_BR;ETA_epsilon_1;ETA_epsilon_2;ETA_epsilon_3;ETA_epsilon_4;ETA_epsilon_5;ETA_dBeta;AETA_dBeta;ETA_psi_1;ETA_dPsi_B;fragCpx;IC0;IC1;IC2;IC3;IC4;IC5;TIC0;TIC1;TIC2;TIC3;TIC4;TIC5;SIC0;SIC1;SIC2;SIC3;SIC4;SIC5;BIC0;BIC1;BIC2;BIC3;BIC4;BIC5;CIC0;CIC1;CIC2;CIC3;CIC4;CIC5;MIC0;MIC1;MIC2;MIC3;MIC4;MIC5;ZMIC0;ZMIC1;ZMIC2;ZMIC3;ZMIC4;ZMIC5;Kier1;Lipinski;GhoseFilter;FilterItLogS;VMcGowan;LabuteASA;PEOE_VSA6;PEOE_VSA7;SMR_VSA4;SMR_VSA5;SlogP_VSA4;SlogP_VSA5;EState_VSA3;EState_VSA4;EState_VSA5;EState_VSA7;EState_VSA8;VSA_EState4;VSA_EState5;VSA_EState7;VSA_EState8;MDEC-11;MID;AMID;MID_C;AMID_C;MPC2;MPC3;MPC4;MPC5;MPC6;MPC7;MPC8;MPC9;MPC10;TMPC10;piPC1;piPC2;piPC3;piPC4;piPC5;piPC6;piPC7;piPC8;piPC9;piPC10;TpiPC10;apol;bpol;nRot;RotRatio;SLogP;SMR;GGI1;GGI2;GGI3;GGI4;GGI5;GGI6;GGI7;GGI8;GGI9;GGI10;JGI1;JGI2;JGI3;JGI4;JGI5;JGI6;JGI7;JGI8;JGI9;JGI10;JGT10;Diameter;Radius;TopoShapeIndex;PetitjeanIndex;Vabc;VAdjMat;MWC01;MWC02;MWC03;MWC04;MWC05;MWC06;MWC07;MWC08;MWC09;MWC10;TMWC10;SRW02;SRW04;SRW06;SRW08;SRW10;TSRW10;MW;AMW;WPath;WPol;Zagreb1;Zagreb2;mZagreb1;mZagreb2
168.0;CCCCCCC(C)CC;3-methylnonane;PLZDDPSCZHRBOY-UHFFFAOYSA-N;11.937511186490084;2.006593618346017;4.013187236692034;11.937511186490084;1.1937511186490084;3.114664506046937;2.8629805163286104;0.28629805163286104;1.0518632207587701;36.01903842375833;3.601903842375833;3.584047643771218;32.0;10.0;22.0;10.0;36.0;35.0;31.0;25.0;20.0;16.0;11.0;5.0;1.0;58.0;71.0;120.0;134.0;121.0;105.0;79.0;63.0;42.0;49.27777777777778;59.0;93.0;116.41666666666666;114.16666666666666;95.91666666666666;74.58333333333333;63.0;52.0;382.0;456.0;555.0;551.0;471.0;377.0;304.0;240.0;151.0;1464.9946180000002;1564.7330249999998;1749.4732169999997;1649.7445519999997;1341.0663899999995;1077.7635169999996;871.8622119999998;675.1054829999998;357.2827449999999;4919.011394973762;6335.857675895377;8408.42647154659;8836.057691156904;7883.8856326409295;6375.170056048273;5088.618011214776;4081.8196662596506;2849.893907865303;223.21136800000002;224.45254800000004;424.876356;565.940384;563.4979440000001;498.21803600000004;374.86695999999995;311.98206;249.073444;171.505;181.9425;333.0825;434.6;429.73499999999996;376.8125;284.95;236.64750000000004;188.22250000000003;168.98000000000002;177.25;326.85;428.40000000000003;424.26000000000005;372.69;281.52000000000004;233.91000000000003;186.21;37.670483906678;49.598074819999994;71.856888732735;80.18733544971501;74.16089844911102;61.125781158809005;48.102736155772;39.081207296376;29.053254152131;5336.131905433478;4509.845254493801;9427.325702838136;13305.129482658916;13484.966283150112;12196.781753979609;9053.56773072277;7574.612575684176;6090.190507957131;1.125;1.1290322580645162;0.5166666666666667;0.30864197530864196;1.8125;2.2903225806451615;2.0;1.654320987654321;1.5399305555555556;1.903225806451613;1.55;1.4372427983539093;11.9375;14.709677419354838;9.25;6.802469135802469;45.781081812500005;50.475258870967735;29.157886949999995;20.36721669135802;153.71910609293008;204.3825056740444;140.14044119244318;109.08713198959141;6.975355250000001;7.240404774193549;7.0812726;6.986918320987654;5.35953125;5.8691129032258065;5.551374999999999;5.3654320987654325;5.280625000000001;5.717741935483871;5.447500000000001;5.28888888888889;1.1772026220836875;1.5999378974193545;1.19761481221225;0.9899671043174693;166.7541220447962;145.4788791772194;157.12209504730225;164.2608578106039;0.045770994606994506;-0.00582779139364013;-0.014517635375116671;-0.0037355493342279182;-0.006554791411825366;0.004873037169281803;0.00029697435320328973;0.0015461670820793515;-0.0068855981768830045;25.875;4.30859375;-10.765625;-6.74609375;-1.62109375;1.65625;-2.2890625;-4.38671875;-1.109375;8.0;1.9375;-3.75;-1.9375;0.0625;0.0;-1.625;-1.6875;0.75;3.3576388888888897;-1.1329210069444424;-0.5872395833333324;0.2561848958333334;-0.7958984375000002;0.382812499999999;-0.0618489583333337;0.5960286458333331;-0.55859375;171.875;-11.81640625;-50.390625;-24.12109375;-27.24609375;19.53125;-2.5390625;-2.63671875;-27.734375;832.3288118749999;-57.22260581640611;-244.02367439062485;-116.80978212109369;-131.94303324609373;94.58281953124992;-12.295766539062527;-12.768680636718777;-134.307603734375;1547.7509673946556;-106.40787900838225;-453.7724427134329;-217.21277781049992;-245.35370449040286;175.88079174939253;-22.8645029274211;-23.743906886168077;-249.7507242841377;0.1630474999999998;-0.011209515625000695;-0.047802562500000506;-0.022882234375000088;-0.025846734374999878;0.018528125000000284;-0.0024086562499998675;-0.0025012968749998574;-0.026309937499999818;0.8421874999999983;-0.057900390625000686;-0.24691406250000017;-0.11819335937499992;-0.13350585937499965;0.09570312500000014;-0.012441406249999842;-0.012919921874999823;-0.13589843749999955;0.6187499999999992;-0.042539062500000294;-0.18140625000000007;-0.08683593749999993;-0.09808593749999986;0.07031250000000007;-0.009140624999999927;-0.009492187499999923;-0.09984374999999981;6.919166958336874;-0.4756927283856631;-2.0285739491487678;-0.9710421810847776;-1.0968452166909017;0.7862689725382828;-0.10221496642997596;-0.10614631129266738;-1.1165019410043584;37.58502473308684;-2.5839704503997742;-11.019245887655048;-5.27471653924572;-5.958080625301827;4.2710255378508;-0.5552333199205912;-0.5765884476098442;-6.064856263748092;0.0014303435814685783;-0.00018799327076258484;-0.00024196058958527786;-4.6117893015159486e-05;0.80859375;0.1389868951612903;-0.17942708333333332;-0.08328510802469136;0.25;0.0625;-0.0625;-0.023919753086419752;0.1049262152777778;-0.03654583893369169;-0.009787326388888873;0.0031627764917695486;5.37109375;-0.3811743951612903;-0.83984375;-0.29779128086419754;26.010275371093748;-1.8458905102066487;-4.067061239843747;-1.442096075569058;48.36721773108299;-3.432512226076847;-7.562874045223881;-2.681639232228394;0.005095234374999993;-0.0003615972782258289;-0.0007967093750000084;-0.00028249672067901346;0.026318359374999947;-0.0018677545362903447;-0.004115234375000003;-0.001459177276234567;0.019335937499999976;-0.0013722278225806546;-0.0030234375000000014;-0.0010720486111111102;0.2162239674480273;-0.015344926722118166;-0.03380956581914613;-0.01198817507512071;1.1745320229089637;-0.08335388549676691;-0.18365409812758413;-0.06511995727463851;-0.13143224690781377;-0.16916256535849197;-0.032242528027992275;0.17188717469222378;-0.2219001610305958;-0.10299994035903859;-0.3483003636121019;-0.09327817993795226;0.03014286261442415;-0.07096774193548387;-0.15636363636363637;-0.05544332210998878;-0.0709677419354837;-0.1563636363636363;-0.05544332210998876;-0.07096774193548366;-0.1563636363636363;-0.055443322109988764;-0.07096774193548837;-0.1563636363636382;-0.05544332210998906;-0.07096774193548486;-0.1563636363636368;-0.055443322109988855;-0.07096774193548444;-0.15636363636363662;-0.0554433221099888;-0.07096774193548433;-0.15636363636363657;-0.0554433221099888;-0.07096774193548536;-0.15636363636363695;-0.055443322109988875;1.6607291207278174;1.2960090898864802;1.0161203373582;1.429951690821256;1.7172302737520129;1.1832766744199916;1.9524301964839703;1.0002068252326781;0.8453789880883984;1.6;1.3527272727272728;1.0576879910213244;1.6000000000000003;1.352727272727273;1.0576879910213246;1.6000000000000005;1.352727272727273;1.0576879910213246;1.6;1.352727272727273;1.0576879910213244;1.6000000000000003;1.3527272727272728;1.0576879910213244;1.6000000000000003;1.3527272727272728;1.0576879910213246;1.6;1.352727272727273;1.0576879910213246;1.5999999999999999;1.3527272727272726;1.0576879910213242;0.20800067326966176;-0.20770084212346207;3.025710373794626;0.9871434891518841;3.025710373794626;0.9871434891518841;2.027946076612605;1.2333918852889982;6.210598963759509;5.795734734558379;12.221598963759527;11.80673473455836;20.790125239875056;20.375261010673917;2.956598963759517;2.5417347345583763;2.7605989637595187;2.345734734558378;2.710598963759517;2.295734734558378;1.8805989637595177;1.4657347345583769;11.470898963759513;11.056034734558382;2.8861627976234385;63.590859804249106;31.795429902124567;50.01681621737043;63.59085980424913;6.359085980424913;31.795429902124624;3.11083158836414;0.311083158836414;1.1348900822052965;31.03816483366235;3.103816483366235;3.4352175709403494;63.590859804249106;31.795429902124567;50.01681621737043;63.59085980424913;6.359085980424913;31.795429902124624;3.11083158836414;0.311083158836414;1.1348900822052965;31.03816483366235;3.103816483366235;3.4352175709403494;63.590859804249106;31.795429902124567;50.01681621737043;63.59085980424913;6.359085980424913;31.795429902124624;3.11083158836414;0.311083158836414;1.1348900822052965;31.03816483366235;3.103816483366235;3.4352175709403494;63.590859804249106;31.795429902124567;50.01681621737043;63.59085980424913;6.359085980424913;31.795429902124624;3.11083158836414;0.311083158836414;1.1348900822052965;31.03816483366235;3.103816483366235;3.4352175709403494;63.590859804249106;31.795429902124567;50.01681621737043;63.59085980424913;6.359085980424913;31.795429902124624;3.11083158836414;0.311083158836414;1.1348900822052965;31.03816483366235;3.103816483366235;3.4352175709403494;63.590859804249106;31.795429902124567;50.01681621737043;63.59085980424913;6.359085980424913;31.795429902124624;3.11083158836414;0.311083158836414;1.1348900822052965;31.03816483366235;3.103816483366235;3.4352175709403494;63.590859804249106;31.795429902124567;50.01681621737043;63.59085980424913;6.359085980424913;31.795429902124624;3.11083158836414;0.311083158836414;1.1348900822052965;31.03816483366235;3.103816483366235;3.4352175709403494;63.590859804249106;31.795429902124567;50.01681621737043;63.59085980424913;6.359085980424913;31.795429902124624;3.11083158836414;0.311083158836414;1.1348900822052965;31.03816483366235;3.103816483366235;3.4352175709403494;57.058650025961626;31.0;9.0;31.0;31.0;0.11717924915683314;0.053720968982909116;3.0;6.0;1.0;0.0;0.28867513459481287;0.0;0.0;0.0;0.28867513459481287;0.0;0.0;0.0;0.4927992798267444;0.34846171252933794;0.2463996399133722;0.4927992798267444;0.34846171252933794;0.2463996399133722;7.819990956308912;4.808060412490447;3.3627553123610365;2.2474002407106255;1.1237001203553127;0.6695759751233813;0.3783550014966005;0.2463996399133722;0.7819990956308912;0.5342289347211608;7.819990956308912;4.808060412490447;3.3627553123610365;2.2474002407106255;1.1237001203553127;0.6695759751233813;0.3783550014966005;0.2463996399133722;0.7819990956308912;0.5342289347211608;13.666666666666668;11.846307551411208;15.96010584164462;30.766205389657685;28.98039215686275;29.360000000000003;18.784099401197608;36.568186105165935;0.42708333333333337;0.37019711098160024;0.49875330755139435;0.9614439184268027;0.9056372549019609;0.9175000000000001;0.5870031062874252;1.1427558157864355;63.590859804249106;31.795429902124567;50.01681621737043;63.59085980424913;6.359085980424913;31.795429902124624;3.11083158836414;0.311083158836414;1.1348900822052965;31.03816483366235;3.103816483366235;3.4352175709403494;3.0;6.0;1.0;0.0;6.902462679516251;8.475448318216177;0.9554223356009068;0.0;2.35312074829932;2.2671123866213154;109.0;5.0;0.3;0.1;0.0;4.5;0.45;4.5;0.45;11.411496917776798;1.1411496917776798;4.808060412490447;0.48080604124904475;11.411496917776798;1.1411496917776798;4.808060412490447;0.48080604124904475;0.10615314988264757;0.010615314988264757;0.10615314988264757;0.010615314988264757;0.425;0.7;0.425;0.425;0.7;-4.5;-0.45;0.7142857142857143;0.00028571428571433355;9.0;0.8960382325345574;1.300870058859033;2.451597655573916;3.429229296672175;3.9917292966721747;4.054229296672174;28.673223441105836;41.627841883489054;78.45112497836531;109.7353374935096;127.73533749350959;129.73533749350958;0.17920764650691148;0.2601740117718066;0.4903195311147832;0.685845859334435;0.7983458593344349;0.8108458593344349;0.1808644987797396;0.26257943314269827;0.49485274744441243;0.6921868012138553;0.8057269124162864;0.8183424803276675;4.103961767465442;3.699129941140967;2.548402344426084;1.5707707033278249;1.0082707033278253;0.9457707033278258;6.673151904630568;11.535586970613844;16.224960436818506;19.96116313104555;20.52816313104555;21.278850631045547;39.639944988972836;31.177975668276126;26.906296086853942;19.333646483360873;17.037687890016525;15.912687890016525;10.0;1.0;0.0;-3.493302638111995;151.76000000000002;66.02373005739902;59.296141336627926;5.917906046161393;5.917906046161393;59.296141336627926;5.917906046161393;59.296141336627926;0.0;5.917906046161393;38.524929737556064;0.0;20.771211599071872;0.0;0.9554223356009068;8.475448318216177;6.902462679516251;0.5436901865014462;18.656209106310374;1.8656209106310375;18.656209106310374;1.8656209106310375;9.0;8.0;6.0;5.0;4.0;3.0;1.0;0.0;0.0;55.0;2.302585092994046;2.302585092994046;2.1972245773362196;1.9459101490553132;1.791759469228055;1.6094379124341003;1.3862943611198906;0.6931471805599453;0.0;0.0;4.02535169073515;31.369446;22.070553999999998;6.0;0.6666666666666666;4.002900000000003;48.21400000000003;1.5;0.666666666666667;0.25;0.16000000000000003;0.1111111111111111;0.0816326530612245;0.03125;0.0;0.0;0.0;0.16666666666666669;0.07407407407407411;0.03125;0.026666666666666672;0.02222222222222222;0.020408163265306124;0.010416666666666666;0.0;0.0;0.0;0.35170445956160246;8.0;4.0;1.0;0.5;181.5163111863147;4.169925001442312;9.0;3.6109179126442243;4.2626798770413155;4.948759890378168;5.6240175061873385;6.318968113746434;7.002155954403621;7.700295203420117;8.386856689688234;9.086249986745132;75.94090113425459;2.9444389791664403;4.007333185232471;5.231108616854587;6.520621127558696;7.8434564043761155;36.546958313188306;142.172150704;4.4428797095;153.0;8.0;36.0;35.0;4.611111111111111;2.6666666666666665