boiling_point;SMILES;IUPAC_name;InChIKey;SpAbs_A;SpMax_A;SpDiam_A;SpAD_A;SpMAD_A;LogEE_A;VE1_A;VE2_A;VE3_A;VR1_A;VR2_A;VR3_A;nAtom;nHeavyAtom;nH;nC;ATS0dv;ATS1dv;ATS2dv;ATS3dv;ATS4dv;ATS5dv;ATS6dv;ATS7dv;ATS8dv;ATS0d;ATS1d;ATS2d;ATS3d;ATS4d;ATS5d;ATS6d;ATS7d;ATS8d;ATS0s;ATS1s;ATS2s;ATS3s;ATS4s;ATS5s;ATS6s;ATS7s;ATS8s;ATS0Z;ATS1Z;ATS2Z;ATS3Z;ATS4Z;ATS5Z;ATS6Z;ATS7Z;ATS8Z;ATS0m;ATS1m;ATS2m;ATS3m;ATS4m;ATS5m;ATS6m;ATS7m;ATS8m;ATS0v;ATS1v;ATS2v;ATS3v;ATS4v;ATS5v;ATS6v;ATS7v;ATS8v;ATS0se;ATS1se;ATS2se;ATS3se;ATS4se;ATS5se;ATS6se;ATS7se;ATS8se;ATS0pe;ATS1pe;ATS2pe;ATS3pe;ATS4pe;ATS5pe;ATS6pe;ATS7pe;ATS8pe;ATS0are;ATS1are;ATS2are;ATS3are;ATS4are;ATS5are;ATS6are;ATS7are;ATS8are;ATS0p;ATS1p;ATS2p;ATS3p;ATS4p;ATS5p;ATS6p;ATS7p;ATS8p;ATS0i;ATS1i;ATS2i;ATS3i;ATS4i;ATS5i;ATS6i;ATS7i;ATS8i;AATS0dv;AATS1dv;AATS2dv;AATS3dv;AATS0d;AATS1d;AATS2d;AATS3d;AATS0s;AATS1s;AATS2s;AATS3s;AATS0Z;AATS1Z;AATS2Z;AATS3Z;AATS0m;AATS1m;AATS2m;AATS3m;AATS0v;AATS1v;AATS2v;AATS3v;AATS0se;AATS1se;AATS2se;AATS3se;AATS0pe;AATS1pe;AATS2pe;AATS3pe;AATS0are;AATS1are;AATS2are;AATS3are;AATS0p;AATS1p;AATS2p;AATS3p;AATS0i;AATS1i;AATS2i;AATS3i;ATSC0c;ATSC1c;ATSC2c;ATSC3c;ATSC4c;ATSC5c;ATSC6c;ATSC7c;ATSC8c;ATSC0dv;ATSC1dv;ATSC2dv;ATSC3dv;ATSC4dv;ATSC5dv;ATSC6dv;ATSC7dv;ATSC8dv;ATSC0d;ATSC1d;ATSC2d;ATSC3d;ATSC4d;ATSC5d;ATSC6d;ATSC7d;ATSC8d;ATSC0s;ATSC1s;ATSC2s;ATSC3s;ATSC4s;ATSC5s;ATSC6s;ATSC7s;ATSC8s;ATSC0Z;ATSC1Z;ATSC2Z;ATSC3Z;ATSC4Z;ATSC5Z;ATSC6Z;ATSC7Z;ATSC8Z;ATSC0m;ATSC1m;ATSC2m;ATSC3m;ATSC4m;ATSC5m;ATSC6m;ATSC7m;ATSC8m;ATSC0v;ATSC1v;ATSC2v;ATSC3v;ATSC4v;ATSC5v;ATSC6v;ATSC7v;ATSC8v;ATSC0se;ATSC1se;ATSC2se;ATSC3se;ATSC4se;ATSC5se;ATSC6se;ATSC7se;ATSC8se;ATSC0pe;ATSC1pe;ATSC2pe;ATSC3pe;ATSC4pe;ATSC5pe;ATSC6pe;ATSC7pe;ATSC8pe;ATSC0are;ATSC1are;ATSC2are;ATSC3are;ATSC4are;ATSC5are;ATSC6are;ATSC7are;ATSC8are;ATSC0p;ATSC1p;ATSC2p;ATSC3p;ATSC4p;ATSC5p;ATSC6p;ATSC7p;ATSC8p;ATSC0i;ATSC1i;ATSC2i;ATSC3i;ATSC4i;ATSC5i;ATSC6i;ATSC7i;ATSC8i;AATSC0c;AATSC1c;AATSC2c;AATSC3c;AATSC0dv;AATSC1dv;AATSC2dv;AATSC3dv;AATSC0d;AATSC1d;AATSC2d;AATSC3d;AATSC0s;AATSC1s;AATSC2s;AATSC3s;AATSC0Z;AATSC1Z;AATSC2Z;AATSC3Z;AATSC0m;AATSC1m;AATSC2m;AATSC3m;AATSC0v;AATSC1v;AATSC2v;AATSC3v;AATSC0se;AATSC1se;AATSC2se;AATSC3se;AATSC0pe;AATSC1pe;AATSC2pe;AATSC3pe;AATSC0are;AATSC1are;AATSC2are;AATSC3are;AATSC0p;AATSC1p;AATSC2p;AATSC3p;AATSC0i;AATSC1i;AATSC2i;AATSC3i;MATS1c;MATS2c;MATS3c;MATS1dv;MATS2dv;MATS3dv;MATS1s;MATS2s;MATS3s;MATS1Z;MATS2Z;MATS3Z;MATS1m;MATS2m;MATS3m;MATS1v;MATS2v;MATS3v;MATS1se;MATS2se;MATS3se;MATS1pe;MATS2pe;MATS3pe;MATS1are;MATS2are;MATS3are;MATS1p;MATS2p;MATS3p;MATS1i;MATS2i;MATS3i;GATS1c;GATS2c;GATS3c;GATS1dv;GATS2dv;GATS3dv;GATS1s;GATS2s;GATS3s;GATS1Z;GATS2Z;GATS3Z;GATS1m;GATS2m;GATS3m;GATS1v;GATS2v;GATS3v;GATS1se;GATS2se;GATS3se;GATS1pe;GATS2pe;GATS3pe;GATS1are;GATS2are;GATS3are;GATS1p;GATS2p;GATS3p;GATS1i;GATS2i;GATS3i;BCUTc-1h;BCUTc-1l;BCUTdv-1h;BCUTdv-1l;BCUTd-1h;BCUTd-1l;BCUTs-1h;BCUTs-1l;BCUTZ-1h;BCUTZ-1l;BCUTm-1h;BCUTm-1l;BCUTv-1h;BCUTv-1l;BCUTse-1h;BCUTse-1l;BCUTpe-1h;BCUTpe-1l;BCUTare-1h;BCUTare-1l;BCUTp-1h;BCUTp-1l;BCUTi-1h;BCUTi-1l;BalabanJ;SpAbs_DzZ;SpMax_DzZ;SpDiam_DzZ;SpAD_DzZ;SpMAD_DzZ;LogEE_DzZ;VE1_DzZ;VE2_DzZ;VE3_DzZ;VR1_DzZ;VR2_DzZ;VR3_DzZ;SpAbs_Dzm;SpMax_Dzm;SpDiam_Dzm;SpAD_Dzm;SpMAD_Dzm;LogEE_Dzm;VE1_Dzm;VE2_Dzm;VE3_Dzm;VR1_Dzm;VR2_Dzm;VR3_Dzm;SpAbs_Dzv;SpMax_Dzv;SpDiam_Dzv;SpAD_Dzv;SpMAD_Dzv;LogEE_Dzv;VE1_Dzv;VE2_Dzv;VE3_Dzv;VR1_Dzv;VR2_Dzv;VR3_Dzv;SpAbs_Dzse;SpMax_Dzse;SpDiam_Dzse;SpAD_Dzse;SpMAD_Dzse;LogEE_Dzse;VE1_Dzse;VE2_Dzse;VE3_Dzse;VR1_Dzse;VR2_Dzse;VR3_Dzse;SpAbs_Dzpe;SpMax_Dzpe;SpDiam_Dzpe;SpAD_Dzpe;SpMAD_Dzpe;LogEE_Dzpe;VE1_Dzpe;VE2_Dzpe;VE3_Dzpe;VR1_Dzpe;VR2_Dzpe;VR3_Dzpe;SpAbs_Dzare;SpMax_Dzare;SpDiam_Dzare;SpAD_Dzare;SpMAD_Dzare;LogEE_Dzare;VE1_Dzare;VE2_Dzare;VE3_Dzare;VR1_Dzare;VR2_Dzare;VR3_Dzare;SpAbs_Dzp;SpMax_Dzp;SpDiam_Dzp;SpAD_Dzp;SpMAD_Dzp;LogEE_Dzp;VE1_Dzp;VE2_Dzp;VE3_Dzp;VR1_Dzp;VR2_Dzp;VR3_Dzp;SpAbs_Dzi;SpMax_Dzi;SpDiam_Dzi;SpAD_Dzi;SpMAD_Dzi;LogEE_Dzi;VE1_Dzi;VE2_Dzi;VE3_Dzi;VR1_Dzi;VR2_Dzi;VR3_Dzi;BertzCT;nBonds;nBondsO;nBondsS;nBondsKS;RNCG;RPCG;C1SP3;C2SP3;C3SP3;C4SP3;Xc-3d;Xc-4d;Xc-5d;Xc-6d;Xc-3dv;Xc-4dv;Xc-5dv;Xc-6dv;Xpc-4d;Xpc-5d;Xpc-6d;Xpc-4dv;Xpc-5dv;Xpc-6dv;Xp-0d;Xp-1d;Xp-2d;Xp-3d;Xp-4d;Xp-5d;Xp-6d;Xp-7d;AXp-0d;AXp-1d;Xp-0dv;Xp-1dv;Xp-2dv;Xp-3dv;Xp-4dv;Xp-5dv;Xp-6dv;Xp-7dv;AXp-0dv;AXp-1dv;SZ;Sm;Sv;Sse;Spe;Sare;Sp;Si;MZ;Mm;Mv;Mse;Mpe;Mare;Mp;Mi;SpAbs_D;SpMax_D;SpDiam_D;SpAD_D;SpMAD_D;LogEE_D;VE1_D;VE2_D;VE3_D;VR1_D;VR2_D;VR3_D;NsCH3;NssCH2;NsssCH;NssssC;SsCH3;SssCH2;SsssCH;SssssC;MAXsCH3;MINsCH3;ECIndex;ETA_alpha;ETA_shape_p;ETA_shape_y;ETA_shape_x;ETA_beta;AETA_beta;ETA_beta_s;AETA_beta_s;ETA_eta;AETA_eta;ETA_eta_L;AETA_eta_L;ETA_eta_R;AETA_eta_R;ETA_eta_RL;AETA_eta_RL;ETA_eta_B;AETA_eta_B;ETA_eta_BR;AETA_eta_BR;ETA_epsilon_1;ETA_epsilon_2;ETA_epsilon_3;ETA_epsilon_4;ETA_epsilon_5;ETA_dBeta;AETA_dBeta;ETA_psi_1;ETA_dPsi_B;fragCpx;IC0;IC1;IC2;IC3;IC4;IC5;TIC0;TIC1;TIC2;TIC3;TIC4;TIC5;SIC0;SIC1;SIC2;SIC3;SIC4;SIC5;BIC0;BIC1;BIC2;BIC3;BIC4;BIC5;CIC0;CIC1;CIC2;CIC3;CIC4;CIC5;MIC0;MIC1;MIC2;MIC3;MIC4;MIC5;ZMIC0;ZMIC1;ZMIC2;ZMIC3;ZMIC4;ZMIC5;Kier1;Lipinski;GhoseFilter;FilterItLogS;VMcGowan;LabuteASA;PEOE_VSA6;PEOE_VSA7;SMR_VSA4;SMR_VSA5;SlogP_VSA4;SlogP_VSA5;EState_VSA3;EState_VSA4;EState_VSA5;EState_VSA7;EState_VSA8;VSA_EState4;VSA_EState5;VSA_EState7;VSA_EState8;MDEC-11;MID;AMID;MID_C;AMID_C;MPC2;MPC3;MPC4;MPC5;MPC6;MPC7;MPC8;MPC9;MPC10;TMPC10;piPC1;piPC2;piPC3;piPC4;piPC5;piPC6;piPC7;piPC8;piPC9;piPC10;TpiPC10;apol;bpol;nRot;RotRatio;SLogP;SMR;GGI1;GGI2;GGI3;GGI4;GGI5;GGI6;GGI7;GGI8;GGI9;GGI10;JGI1;JGI2;JGI3;JGI4;JGI5;JGI6;JGI7;JGI8;JGI9;JGI10;JGT10;Diameter;Radius;TopoShapeIndex;PetitjeanIndex;Vabc;VAdjMat;MWC01;MWC02;MWC03;MWC04;MWC05;MWC06;MWC07;MWC08;MWC09;MWC10;TMWC10;SRW02;SRW04;SRW06;SRW08;SRW10;TSRW10;MW;AMW;WPath;WPol;Zagreb1;Zagreb2;mZagreb1;mZagreb2
134.0;CCC(CC)CC(C)C;4-ethyl-2-methylhexane;KYCZJIBOPKRSOV-UHFFFAOYSA-N;10.175084032527597;2.0839681098273;4.167936219654601;10.175084032527597;1.1305648925030662;3.0184407228893626;2.76134165722822;0.30681573969202447;0.9103561536505479;24.952613315840345;2.7725125906489274;3.1116180431724785;29.0;9.0;20.0;9.0;34.0;34.0;32.0;26.0;15.0;4.0;0.0;0.0;0.0;54.0;64.0;115.0;124.0;123.0;96.0;63.0;36.0;0.0;46.30555555555556;55.0;84.52777777777777;108.99999999999999;115.66666666666666;107.99999999999999;87.0;36.0;0.0;344.0;408.0;519.0;542.0;496.0;382.0;183.0;36.0;0.0;1318.6983689999995;1396.2547279999997;1676.830689;1640.5999759999995;1462.1323989999996;1023.2436519999999;330.19660799999997;36.578304;0.0;4433.327004362572;5682.86754140501;7720.006773323481;8556.303991278532;8109.013046080152;6651.9598742465805;3965.944825698728;1119.0147995134894;0.0;202.2339240000001;202.67676799999998;382.17056399999996;505.474208;563.52166;500.5893280000001;432.8432640000001;241.86470400000002;0.0;155.32250000000002;164.22;299.4225;391.03999999999996;429.85749999999996;381.31;323.4;174.24;0.0;153.05;160.0;293.85;384.84000000000003;424.34999999999997;376.56;320.76;174.24;0.0;33.992358096980006;44.5820862;65.175622872735;76.185819306074;75.16732273396;64.13294530486601;44.064966729111;16.006064574564;0.0;4839.50224529498;4076.8058029780004;8508.590416560735;11640.870614440675;13490.433195838561;12000.544215423068;10886.72957405531;6657.0354728729635;0.0;1.1724137931034482;1.2142857142857142;0.5925925925925926;0.3611111111111111;1.8620689655172413;2.2857142857142856;2.1296296296296298;1.7222222222222223;1.5967432950191571;1.9642857142857142;1.5653292181069958;1.5138888888888886;11.862068965517242;14.571428571428571;9.61111111111111;7.527777777777778;45.47235755172412;49.86624028571428;31.052420166666664;22.786110777777772;152.8733449780197;202.95955505017895;142.96308839487926;118.83755543442405;6.9735835862068996;7.238455999999999;7.077232666666666;7.020475111111111;5.35594827586207;5.865;5.5448611111111115;5.431111111111111;5.277586206896552;5.714285714285714;5.441666666666667;5.345000000000001;1.172150279206207;1.5922173642857143;1.2069559791247224;1.0581363792510277;166.8793877687924;145.6002072492143;157.56648919556918;161.67875853389828;0.04086323248019222;-0.007200701663201123;-0.006026623157326444;-0.009859622633054448;0.004098716186193329;-0.009008506754915055;-0.011771972957599281;0.019337094739806916;0.0;25.172413793103445;7.2128418549346005;-7.8382877526753845;-8.35909631391201;-9.998810939357906;-10.497027348394766;5.935790725326992;10.958382877526756;0.0;9.310344827586206;2.8727705112960757;-2.888228299643283;-3.3912009512485133;-5.418549346016647;-1.5980975029726512;3.6706302021403108;2.097502972651606;0.0;3.6609195402298855;-1.6457920465054832;0.22813449597040553;-0.9742370194213238;0.7373166864843441;0.45105033690051566;-2.2547562425683707;1.6278240190249704;0.0;155.17241379310346;-11.89060642092749;-17.39001189060645;-45.600475624256845;-2.378121284185495;-52.49702734839477;-34.51248513674195;86.68252080856126;0.0;751.4441937931032;-57.5819305588583;-84.21357344233037;-220.8267036932222;-11.516386111771723;-254.22422341736026;-167.13155344708693;419.77227377407814;0.0;1397.342566174485;-107.07605871068864;-156.59873586438215;-410.6366851554907;-21.41521174213773;-472.74079920769;-310.7882604077736;780.5844680009196;0.0;0.14720275862068946;-0.011279904875146945;-0.016496860879903555;-0.04325843519619412;-0.0022559809750299278;-0.049800780023781396;-0.03273992390012023;0.08223050653983144;0.0;0.7603448275862053;-0.05826397146254694;-0.08521105826397327;-0.22344233055885931;-0.011652794292508616;-0.2572354340071335;-0.16911117717003335;0.42474435196195215;0.0;0.5586206896551719;-0.04280618311534081;-0.06260404280618456;-0.1641617122473254;-0.008561236623067528;-0.18898929845422063;-0.12424494649226937;0.31205707491082246;0.0;6.246771423200688;-0.47867980254411097;-0.7000692112207644;-1.835737042756676;-0.09573596050882316;-2.1133713282322644;-1.3893681268842935;3.4895757605465882;0.0;33.932561514511;-2.6001962846370485;-3.8027870662815544;-9.971752751582446;-0.5200392569273484;-11.4798665966717;-7.547069716158324;18.955430915002925;0.0;0.0014090769820755938;-0.00025716791654289723;-0.00011160413254308229;-0.00013693920323686732;0.868014268727705;0.2576014948190929;-0.14515347690139602;-0.11609855991544459;0.3210463733650416;0.1025989468320027;-0.053485709252653384;-0.047100013211784905;0.1262386048355133;-0.058778287375195824;0.004224712888340843;-0.013531069714185053;5.35077288941736;-0.42466451503312463;-0.3220372572334527;-0.6333399392257895;25.911868751486317;-2.0564975199592253;-1.5595106193024142;-3.067037551294753;48.184226419809825;-3.824144953953166;-2.8999765900811507;-5.70328729382626;0.005075957193816878;-0.0004028537455409623;-0.0003054974237019177;-0.0006008115999471406;0.026218787158145008;-0.002080856123662391;-0.0015779825604439494;-0.0031033657022063793;0.01926278240190248;-0.0015287922541193147;-0.001159334126040455;-0.0022800237812128526;0.2154059111448513;-0.017095707233718248;-0.012964244652236378;-0.025496347816064944;1.1700883280865861;-0.09286415302275174;-0.07042198270891767;-0.13849656599420065;-0.1825080672058702;-0.07920371559734625;-0.09718362089426341;0.2967710371819961;-0.16722475900558093;-0.13375190258751907;-0.4656126186738431;0.033466092989902496;-0.10718646432932145;-0.0793650793650795;-0.06018518518518527;-0.1183641975308642;-0.07936507936507912;-0.060185185185185064;-0.11836419753086418;-0.07936507936507947;-0.06018518518518526;-0.11836419753086427;-0.07936507936506759;-0.06018518518518044;-0.11836419753086194;-0.07936507936508275;-0.06018518518518659;-0.11836419753086488;-0.07936507936508302;-0.060185185185186646;-0.11836419753086488;-0.07936507936507886;-0.06018518518518499;-0.11836419753086412;-0.07936507936508518;-0.060185185185187534;-0.11836419753086531;1.7149504859988907;1.1564026280314794;1.1327189779997127;1.3506849315068494;1.8744799594114665;1.3131659056316594;2.0790162218733648;0.8104734771401436;1.0268620268620265;1.6111111111111112;1.2530864197530864;1.1904320987654322;1.6111111111111116;1.253086419753087;1.1904320987654327;1.6111111111111116;1.2530864197530869;1.1904320987654324;1.6111111111111116;1.2530864197530867;1.1904320987654324;1.6111111111111112;1.2530864197530864;1.1904320987654322;1.6111111111111107;1.253086419753086;1.1904320987654318;1.6111111111111112;1.2530864197530867;1.1904320987654324;1.611111111111111;1.2530864197530867;1.1904320987654322;0.215127691046429;-0.21716715353863095;3.036983193367933;0.9871323254143316;3.036983193367933;0.9871323254143316;2.037373056326998;1.2085216289541507;6.218827823035828;5.7871337301838945;12.22982782303583;11.798133730183894;20.798354099151357;20.366660006299416;2.964827823035823;2.5331337301838897;2.768827823035825;2.3371337301838886;2.718827823035826;2.2871337301838937;1.8888278230358277;1.457133730183892;11.479127823035823;11.04743373018391;3.307394083663299;45.24084118592859;22.62042059296429;32.86312234592192;45.24084118592859;5.026760131769843;22.620420593460526;2.9490888270585107;0.3276765363398345;0.976135734799509;27.059379778118103;3.006597753124234;3.192673186575214;45.24084118592859;22.62042059296429;32.86312234592192;45.24084118592859;5.026760131769843;22.620420593460526;2.9490888270585107;0.3276765363398345;0.976135734799509;27.059379778118103;3.006597753124234;3.192673186575214;45.24084118592859;22.62042059296429;32.86312234592192;45.24084118592859;5.026760131769843;22.620420593460526;2.9490888270585107;0.3276765363398345;0.976135734799509;27.059379778118103;3.006597753124234;3.192673186575214;45.24084118592859;22.62042059296429;32.86312234592192;45.24084118592859;5.026760131769843;22.620420593460526;2.9490888270585107;0.3276765363398345;0.976135734799509;27.059379778118103;3.006597753124234;3.192673186575214;45.24084118592859;22.62042059296429;32.86312234592192;45.24084118592859;5.026760131769843;22.620420593460526;2.9490888270585107;0.3276765363398345;0.976135734799509;27.059379778118103;3.006597753124234;3.192673186575214;45.24084118592859;22.62042059296429;32.86312234592192;45.24084118592859;5.026760131769843;22.620420593460526;2.9490888270585107;0.3276765363398345;0.976135734799509;27.059379778118103;3.006597753124234;3.192673186575214;45.24084118592859;22.62042059296429;32.86312234592192;45.24084118592859;5.026760131769843;22.620420593460526;2.9490888270585107;0.3276765363398345;0.976135734799509;27.059379778118103;3.006597753124234;3.192673186575214;45.24084118592859;22.62042059296429;32.86312234592192;45.24084118592859;5.026760131769843;22.620420593460526;2.9490888270585107;0.3276765363398345;0.976135734799509;27.059379778118103;3.006597753124234;3.192673186575214;51.058650025961626;28.0;8.0;28.0;28.0;0.13046982962792153;0.06062362508588745;4.0;3.0;2.0;0.0;0.6123724356957945;0.0;0.0;0.0;0.6123724356957945;0.0;0.0;0.0;0.7618016810571369;1.0088619993562966;1.040440114519881;0.7618016810571369;1.0088619993562966;1.040440114519881;7.276020881938894;4.201907262607799;3.3120710952250323;1.9594383925036167;1.2886751345948129;0.6666666666666666;0.0;0.0;0.8084467646598772;0.5252384078259749;7.276020881938894;4.201907262607799;3.3120710952250323;1.9594383925036167;1.2886751345948129;0.6666666666666666;0.0;0.0;0.8084467646598772;0.5252384078259749;12.33333333333333;10.678461410373828;14.418278037858745;27.87836853605244;26.254901960784316;26.599999999999998;16.985544910179645;33.15289645924176;0.425287356321839;0.3682228072542699;0.49718200130547396;0.9613230529673256;0.9053414469235971;0.9172413793103448;0.5857084451786084;1.1432033261807504;45.24084118592859;22.62042059296429;32.86312234592192;45.24084118592859;5.026760131769843;22.620420593460526;2.9490888270585107;0.3276765363398345;0.976135734799509;27.059379778118103;3.006597753124234;3.192673186575214;4.0;3.0;2.0;0.0;9.184259259259258;4.121388888888889;1.8610185185185182;0.0;2.303888888888889;2.288240740740741;63.0;4.5;0.4444444444444444;0.2222222222222222;0.0;4.0;0.4444444444444444;4.0;0.4444444444444444;10.548687643449721;1.1720764048277468;4.201907262607799;0.46687858473419985;10.548687643449721;1.1720764048277468;4.201907262607799;0.46687858473419985;0.21230629976529602;0.02358958886281067;0.21230629976529602;0.02358958886281067;0.4241379310344827;0.7;0.4241379310344827;0.4241379310344827;0.7;-4.0;-0.4444444444444444;0.7142857142857143;0.00028571428571433355;8.0;0.8935711016541907;1.3685517054754786;2.5638663395075443;3.236617201725714;3.236617201725714;3.236617201725714;25.91356194797153;39.68799945878888;74.35212384571878;93.86189885004572;93.86189885004572;93.86189885004572;0.18393878085369605;0.28171203363045266;0.5277637648395569;0.6662473988621933;0.6662473988621933;0.6662473988621933;0.18587583320595183;0.28467873241398256;0.5333216251090068;0.6732636250498444;0.6732636250498444;0.6732636250498444;3.9644098934733814;3.4894292896520933;2.2941146556200276;1.6213637934018577;1.6213637934018577;1.6213637934018577;6.664965218283638;12.369957250781123;16.89655947727526;17.574692346391174;17.574692346391174;17.574692346391174;35.68332320783173;26.142133731356516;22.26874284603954;20.681075967294827;20.681075967294827;20.681075967294827;9.0;1.0;0.0;-2.7006147003950467;137.67000000000004;59.6587879430024;40.53659204461451;18.256633715248796;11.835812092322787;46.95741366754052;11.835812092322787;46.95741366754052;0.0;11.835812092322787;19.26246486877803;0.0;27.694948798762496;0.0;1.8610185185185182;4.121388888888889;9.184259259259258;1.4509627050731748;16.498403756170376;1.8331559729078195;16.498403756170376;1.8331559729078195;9.0;8.0;7.0;4.0;0.0;0.0;0.0;0.0;0.0;45.0;2.1972245773362196;2.302585092994046;2.1972245773362196;2.0794415416798357;1.6094379124341003;0.0;0.0;0.0;0.0;0.0;3.828641396489095;28.365859999999998;20.06414;4.0;0.5;3.468700000000003;43.52700000000001;2.5;0.666666666666667;0.625;0.32000000000000006;0.0;0.0;0.0;0.0;0.0;0.0;0.3125;0.07407407407407411;0.078125;0.045714285714285714;0.0;0.0;0.0;0.0;0.0;0.0;0.5104133597883598;5.0;3.0;0.6666666666666666;0.4;164.22032596245742;4.0;8.0;3.5553480614894135;4.23410650459726;4.990432586778736;5.6937321388027;6.450470422144176;7.161622002939187;7.916078096302786;8.630700432209832;9.383368881858544;75.01585912712264;2.833213344056216;3.970291913552122;5.2832037287379885;6.670766320845874;8.094683648698815;35.852158955891014;128.15650064;4.419189677241379;98.0;8.0;34.0;34.0;4.972222222222222;2.3333333333333335