boiling_point;SMILES;IUPAC_name;InChIKey;SpAbs_A;SpMax_A;SpDiam_A;SpAD_A;SpMAD_A;LogEE_A;VE1_A;VE2_A;VE3_A;VR1_A;VR2_A;VR3_A;nAtom;nHeavyAtom;nH;nC;ATS0dv;ATS1dv;ATS2dv;ATS3dv;ATS4dv;ATS5dv;ATS6dv;ATS7dv;ATS8dv;ATS0d;ATS1d;ATS2d;ATS3d;ATS4d;ATS5d;ATS6d;ATS7d;ATS8d;ATS0s;ATS1s;ATS2s;ATS3s;ATS4s;ATS5s;ATS6s;ATS7s;ATS8s;ATS0Z;ATS1Z;ATS2Z;ATS3Z;ATS4Z;ATS5Z;ATS6Z;ATS7Z;ATS8Z;ATS0m;ATS1m;ATS2m;ATS3m;ATS4m;ATS5m;ATS6m;ATS7m;ATS8m;ATS0v;ATS1v;ATS2v;ATS3v;ATS4v;ATS5v;ATS6v;ATS7v;ATS8v;ATS0se;ATS1se;ATS2se;ATS3se;ATS4se;ATS5se;ATS6se;ATS7se;ATS8se;ATS0pe;ATS1pe;ATS2pe;ATS3pe;ATS4pe;ATS5pe;ATS6pe;ATS7pe;ATS8pe;ATS0are;ATS1are;ATS2are;ATS3are;ATS4are;ATS5are;ATS6are;ATS7are;ATS8are;ATS0p;ATS1p;ATS2p;ATS3p;ATS4p;ATS5p;ATS6p;ATS7p;ATS8p;ATS0i;ATS1i;ATS2i;ATS3i;ATS4i;ATS5i;ATS6i;ATS7i;ATS8i;AATS0dv;AATS1dv;AATS2dv;AATS3dv;AATS0d;AATS1d;AATS2d;AATS3d;AATS0s;AATS1s;AATS2s;AATS3s;AATS0Z;AATS1Z;AATS2Z;AATS3Z;AATS0m;AATS1m;AATS2m;AATS3m;AATS0v;AATS1v;AATS2v;AATS3v;AATS0se;AATS1se;AATS2se;AATS3se;AATS0pe;AATS1pe;AATS2pe;AATS3pe;AATS0are;AATS1are;AATS2are;AATS3are;AATS0p;AATS1p;AATS2p;AATS3p;AATS0i;AATS1i;AATS2i;AATS3i;ATSC0c;ATSC1c;ATSC2c;ATSC3c;ATSC4c;ATSC5c;ATSC6c;ATSC7c;ATSC8c;ATSC0dv;ATSC1dv;ATSC2dv;ATSC3dv;ATSC4dv;ATSC5dv;ATSC6dv;ATSC7dv;ATSC8dv;ATSC0d;ATSC1d;ATSC2d;ATSC3d;ATSC4d;ATSC5d;ATSC6d;ATSC7d;ATSC8d;ATSC0s;ATSC1s;ATSC2s;ATSC3s;ATSC4s;ATSC5s;ATSC6s;ATSC7s;ATSC8s;ATSC0Z;ATSC1Z;ATSC2Z;ATSC3Z;ATSC4Z;ATSC5Z;ATSC6Z;ATSC7Z;ATSC8Z;ATSC0m;ATSC1m;ATSC2m;ATSC3m;ATSC4m;ATSC5m;ATSC6m;ATSC7m;ATSC8m;ATSC0v;ATSC1v;ATSC2v;ATSC3v;ATSC4v;ATSC5v;ATSC6v;ATSC7v;ATSC8v;ATSC0se;ATSC1se;ATSC2se;ATSC3se;ATSC4se;ATSC5se;ATSC6se;ATSC7se;ATSC8se;ATSC0pe;ATSC1pe;ATSC2pe;ATSC3pe;ATSC4pe;ATSC5pe;ATSC6pe;ATSC7pe;ATSC8pe;ATSC0are;ATSC1are;ATSC2are;ATSC3are;ATSC4are;ATSC5are;ATSC6are;ATSC7are;ATSC8are;ATSC0p;ATSC1p;ATSC2p;ATSC3p;ATSC4p;ATSC5p;ATSC6p;ATSC7p;ATSC8p;ATSC0i;ATSC1i;ATSC2i;ATSC3i;ATSC4i;ATSC5i;ATSC6i;ATSC7i;ATSC8i;AATSC0c;AATSC1c;AATSC2c;AATSC3c;AATSC0dv;AATSC1dv;AATSC2dv;AATSC3dv;AATSC0d;AATSC1d;AATSC2d;AATSC3d;AATSC0s;AATSC1s;AATSC2s;AATSC3s;AATSC0Z;AATSC1Z;AATSC2Z;AATSC3Z;AATSC0m;AATSC1m;AATSC2m;AATSC3m;AATSC0v;AATSC1v;AATSC2v;AATSC3v;AATSC0se;AATSC1se;AATSC2se;AATSC3se;AATSC0pe;AATSC1pe;AATSC2pe;AATSC3pe;AATSC0are;AATSC1are;AATSC2are;AATSC3are;AATSC0p;AATSC1p;AATSC2p;AATSC3p;AATSC0i;AATSC1i;AATSC2i;AATSC3i;MATS1c;MATS2c;MATS3c;MATS1dv;MATS2dv;MATS3dv;MATS1s;MATS2s;MATS3s;MATS1Z;MATS2Z;MATS3Z;MATS1m;MATS2m;MATS3m;MATS1v;MATS2v;MATS3v;MATS1se;MATS2se;MATS3se;MATS1pe;MATS2pe;MATS3pe;MATS1are;MATS2are;MATS3are;MATS1p;MATS2p;MATS3p;MATS1i;MATS2i;MATS3i;GATS1c;GATS2c;GATS3c;GATS1dv;GATS2dv;GATS3dv;GATS1s;GATS2s;GATS3s;GATS1Z;GATS2Z;GATS3Z;GATS1m;GATS2m;GATS3m;GATS1v;GATS2v;GATS3v;GATS1se;GATS2se;GATS3se;GATS1pe;GATS2pe;GATS3pe;GATS1are;GATS2are;GATS3are;GATS1p;GATS2p;GATS3p;GATS1i;GATS2i;GATS3i;BCUTc-1h;BCUTc-1l;BCUTdv-1h;BCUTdv-1l;BCUTd-1h;BCUTd-1l;BCUTs-1h;BCUTs-1l;BCUTZ-1h;BCUTZ-1l;BCUTm-1h;BCUTm-1l;BCUTv-1h;BCUTv-1l;BCUTse-1h;BCUTse-1l;BCUTpe-1h;BCUTpe-1l;BCUTare-1h;BCUTare-1l;BCUTp-1h;BCUTp-1l;BCUTi-1h;BCUTi-1l;BalabanJ;SpAbs_DzZ;SpMax_DzZ;SpDiam_DzZ;SpAD_DzZ;SpMAD_DzZ;LogEE_DzZ;VE1_DzZ;VE2_DzZ;VE3_DzZ;VR1_DzZ;VR2_DzZ;VR3_DzZ;SpAbs_Dzm;SpMax_Dzm;SpDiam_Dzm;SpAD_Dzm;SpMAD_Dzm;LogEE_Dzm;VE1_Dzm;VE2_Dzm;VE3_Dzm;VR1_Dzm;VR2_Dzm;VR3_Dzm;SpAbs_Dzv;SpMax_Dzv;SpDiam_Dzv;SpAD_Dzv;SpMAD_Dzv;LogEE_Dzv;VE1_Dzv;VE2_Dzv;VE3_Dzv;VR1_Dzv;VR2_Dzv;VR3_Dzv;SpAbs_Dzse;SpMax_Dzse;SpDiam_Dzse;SpAD_Dzse;SpMAD_Dzse;LogEE_Dzse;VE1_Dzse;VE2_Dzse;VE3_Dzse;VR1_Dzse;VR2_Dzse;VR3_Dzse;SpAbs_Dzpe;SpMax_Dzpe;SpDiam_Dzpe;SpAD_Dzpe;SpMAD_Dzpe;LogEE_Dzpe;VE1_Dzpe;VE2_Dzpe;VE3_Dzpe;VR1_Dzpe;VR2_Dzpe;VR3_Dzpe;SpAbs_Dzare;SpMax_Dzare;SpDiam_Dzare;SpAD_Dzare;SpMAD_Dzare;LogEE_Dzare;VE1_Dzare;VE2_Dzare;VE3_Dzare;VR1_Dzare;VR2_Dzare;VR3_Dzare;SpAbs_Dzp;SpMax_Dzp;SpDiam_Dzp;SpAD_Dzp;SpMAD_Dzp;LogEE_Dzp;VE1_Dzp;VE2_Dzp;VE3_Dzp;VR1_Dzp;VR2_Dzp;VR3_Dzp;SpAbs_Dzi;SpMax_Dzi;SpDiam_Dzi;SpAD_Dzi;SpMAD_Dzi;LogEE_Dzi;VE1_Dzi;VE2_Dzi;VE3_Dzi;VR1_Dzi;VR2_Dzi;VR3_Dzi;BertzCT;nBonds;nBondsO;nBondsS;nBondsKS;RNCG;RPCG;C1SP3;C2SP3;C3SP3;C4SP3;Xc-3d;Xc-4d;Xc-5d;Xc-6d;Xc-3dv;Xc-4dv;Xc-5dv;Xc-6dv;Xpc-4d;Xpc-5d;Xpc-6d;Xpc-4dv;Xpc-5dv;Xpc-6dv;Xp-0d;Xp-1d;Xp-2d;Xp-3d;Xp-4d;Xp-5d;Xp-6d;Xp-7d;AXp-0d;AXp-1d;Xp-0dv;Xp-1dv;Xp-2dv;Xp-3dv;Xp-4dv;Xp-5dv;Xp-6dv;Xp-7dv;AXp-0dv;AXp-1dv;SZ;Sm;Sv;Sse;Spe;Sare;Sp;Si;MZ;Mm;Mv;Mse;Mpe;Mare;Mp;Mi;SpAbs_D;SpMax_D;SpDiam_D;SpAD_D;SpMAD_D;LogEE_D;VE1_D;VE2_D;VE3_D;VR1_D;VR2_D;VR3_D;NsCH3;NssCH2;NsssCH;NssssC;SsCH3;SssCH2;SsssCH;SssssC;MAXsCH3;MINsCH3;ECIndex;ETA_alpha;ETA_shape_p;ETA_shape_y;ETA_shape_x;ETA_beta;AETA_beta;ETA_beta_s;AETA_beta_s;ETA_eta;AETA_eta;ETA_eta_L;AETA_eta_L;ETA_eta_R;AETA_eta_R;ETA_eta_RL;AETA_eta_RL;ETA_eta_B;AETA_eta_B;ETA_eta_BR;AETA_eta_BR;ETA_epsilon_1;ETA_epsilon_2;ETA_epsilon_3;ETA_epsilon_4;ETA_epsilon_5;ETA_dBeta;AETA_dBeta;ETA_psi_1;ETA_dPsi_B;fragCpx;IC0;IC1;IC2;IC3;IC4;IC5;TIC0;TIC1;TIC2;TIC3;TIC4;TIC5;SIC0;SIC1;SIC2;SIC3;SIC4;SIC5;BIC0;BIC1;BIC2;BIC3;BIC4;BIC5;CIC0;CIC1;CIC2;CIC3;CIC4;CIC5;MIC0;MIC1;MIC2;MIC3;MIC4;MIC5;ZMIC0;ZMIC1;ZMIC2;ZMIC3;ZMIC4;ZMIC5;Kier1;Lipinski;GhoseFilter;FilterItLogS;VMcGowan;LabuteASA;PEOE_VSA6;PEOE_VSA7;SMR_VSA4;SMR_VSA5;SlogP_VSA4;SlogP_VSA5;EState_VSA3;EState_VSA4;EState_VSA5;EState_VSA7;EState_VSA8;VSA_EState4;VSA_EState5;VSA_EState7;VSA_EState8;MDEC-11;MID;AMID;MID_C;AMID_C;MPC2;MPC3;MPC4;MPC5;MPC6;MPC7;MPC8;MPC9;MPC10;TMPC10;piPC1;piPC2;piPC3;piPC4;piPC5;piPC6;piPC7;piPC8;piPC9;piPC10;TpiPC10;apol;bpol;nRot;RotRatio;SLogP;SMR;GGI1;GGI2;GGI3;GGI4;GGI5;GGI6;GGI7;GGI8;GGI9;GGI10;JGI1;JGI2;JGI3;JGI4;JGI5;JGI6;JGI7;JGI8;JGI9;JGI10;JGT10;Diameter;Radius;TopoShapeIndex;PetitjeanIndex;Vabc;VAdjMat;MWC01;MWC02;MWC03;MWC04;MWC05;MWC06;MWC07;MWC08;MWC09;MWC10;TMWC10;SRW02;SRW04;SRW06;SRW08;SRW10;TSRW10;MW;AMW;WPath;WPol;Zagreb1;Zagreb2;mZagreb1;mZagreb2
134.0;CCC(CC)C(C)(C)C;3-ethyl-2,2-dimethylpentane;CLZCPQKGOAXOJT-UHFFFAOYSA-N;9.300563079745771;2.2360679774997907;4.472135954999581;9.300563079745771;1.0333958977495301;3.0400302354989885;2.7038938768622187;0.30043265298469096;0.8893323950301663;25.141601327744496;2.7935112586382775;3.1191633818856292;29.0;9.0;20.0;9.0;38.0;40.0;38.0;24.0;7.0;0.0;0.0;0.0;0.0;58.0;66.0;127.0;132.0;141.0;90.0;63.0;0.0;0.0;47.84027777777778;56.5;86.16666666666666;122.0;149.5;132.0;63.0;0.0;0.0;344.0;408.0;569.0;652.0;574.0;300.0;63.0;0.0;0.0;1318.6983689999995;1396.2547279999997;1918.9627069999997;2015.824282;1613.5138389999997;557.2687679999999;64.01203199999999;0.0;0.0;4433.327004362572;5682.867541405011;8170.261600201926;10010.393281432038;9672.354909111957;6310.957620246436;1958.2758991486064;0.0;0.0;202.2339240000001;202.67676799999998;382.21799599999997;510.31165599999997;689.244028;621.426816;423.263232;0.0;0.0;155.32250000000002;164.22;299.66749999999996;400.525;526.2175;467.93999999999994;304.91999999999996;0.0;0.0;153.05;160.0;294.03;392.94000000000005;519.39;463.32;304.91999999999996;0.0;0.0;33.992358096980006;44.5820862;67.188471442433;86.225844737584;91.197531883054;68.11028045275201;28.010613005487002;0.0;0.0;4839.50224529498;4076.805802978;8519.524241937634;11270.263188081386;16437.409680538858;15307.194301105752;11649.812077527686;0.0;0.0;1.3103448275862069;1.4285714285714286;0.7037037037037037;0.3333333333333333;2.0;2.357142857142857;2.3518518518518516;1.8333333333333333;1.6496647509578544;2.017857142857143;1.5956790123456788;1.6944444444444444;11.862068965517242;14.571428571428571;10.537037037037036;9.055555555555555;45.47235755172412;49.86624028571428;35.53634642592592;27.99755947222222;152.8733449780197;202.95955505017898;151.3011407444801;139.0332400198894;6.9735835862068996;7.238455999999999;7.078111037037036;7.0876618888888885;5.35594827586207;5.865;5.549398148148147;5.562847222222222;5.277586206896552;5.714285714285714;5.444999999999999;5.4575000000000005;1.172150279206207;1.5922173642857143;1.244230952637648;1.1975811769108888;166.8793877687924;145.6002072492143;157.7689674432895;156.53143316779702;0.03944321088598963;-0.01002073854786026;0.008333375009123092;-0.01625313642132251;-0.004453736923832595;-0.03146640516857398;0.03413903660947143;0.0;0.0;29.17241379310344;13.212841854934599;-8.4589774078478;-23.600475624256834;-19.140309155766946;4.223543400713437;19.17717003567182;0.0;0.0;13.310344827586206;4.872770511296077;-5.784780023781215;-10.287752675386447;-4.369797859690844;5.243757431629014;3.67063020214031;0.0;0.0;4.179118773946361;-2.368344563350506;1.8202041220768925;-2.1185592548553283;2.2268876337693224;-4.896403091557669;3.2466557669441083;0.0;0.0;155.17241379310346;-11.890606420927494;32.609988109393555;-88.70392390011895;-52.14030915576694;-109.15576694411412;151.6944114149822;0.0;0.0;751.4441937931032;-57.5819305588583;157.91844455766955;-429.5612019690841;-252.4967655005944;-528.602122530321;734.6014791046366;0.0;0.0;1397.342566174485;-107.07605871068864;293.6560910140632;-798.7873979817366;-469.5285174463694;-982.9582189641208;1366.0228190016096;0.0;0.0;0.14720275862068946;-0.011279904875146943;0.030935139120096402;-0.08414809036860678;-0.04946238287752682;-0.10354952675386557;0.14390338644470502;0.0;0.0;0.7603448275862053;-0.05826397146254696;0.15978894173602626;-0.4346492271105846;-0.2554875148632574;-0.5348632580261565;0.7433026159334163;0.0;0.0;0.5586206896551719;-0.042806183115340804;0.11739595719381522;-0.3193341260404299;-0.18770511296076067;-0.39296076099880906;0.5460998810939393;0.0;0.0;6.246771423200688;-0.47867980254411097;1.3127793584772354;-3.570951326979087;-2.0990109341559404;-4.394280587354969;6.106757580956529;0.0;0.0;33.932561514511;-2.60019628463705;7.131038310616436;-19.39746428339118;-11.401860708132606;-23.869801892966215;33.17200410125512;0.0;0.0;0.0013601107202065388;-0.00035788351956643786;0.0001543217594282054;-0.00022573800585170151;1.0059453032104635;0.4718872091048071;-0.15664772977495928;-0.3277843836702338;0.4589774078478002;0.17402751826057417;-0.10712555599594842;-0.14288545382481177;0.14410754392918487;-0.08458373440537521;0.03370748374216467;-0.029424434095212892;5.35077288941736;-0.4246645150331248;0.6038886686924733;-1.2319989430572076;25.911868751486317;-2.0564975199592253;2.9244156399568433;-5.966127805126168;48.184226419809825;-3.824144953953166;5.4380757595196885;-11.094269416413008;0.005075957193816878;-0.00040285374554096225;0.0005728729466684518;-0.0011687234773417607;0.026218787158145008;-0.0020808561236623914;0.002959054476593079;-0.006036794820980342;0.01926278240190248;-0.0015287922541193145;0.0021739992072928745;-0.00443519619500597;0.2154059111448513;-0.017095707233718248;0.024310728860689544;-0.04959654620804287;1.1700883280865861;-0.09286415302275178;0.13205626501141549;-0.26940922615821083;-0.2631282249669289;0.11346264472113782;-0.16597031587062425;0.4690982776089159;-0.15572191576919714;-0.32584712371946417;-0.5869486919223331;0.23390506022869068;-0.20418385667354236;-0.07936507936507954;0.11286008230452665;-0.23024691358024701;-0.07936507936507912;0.11286008230452686;-0.23024691358024682;-0.07936507936507947;0.11286008230452674;-0.23024691358024701;-0.07936507936506758;0.11286008230453155;-0.23024691358024169;-0.07936507936508276;0.11286008230452539;-0.23024691358024846;-0.07936507936508301;0.11286008230452527;-0.23024691358024846;-0.07936507936507886;0.11286008230452697;-0.2302469135802467;-0.07936507936508522;0.11286008230452442;-0.23024691358024948;1.7981001958235219;0.9067818379712198;1.3145645953704155;1.2340425531914898;2.310655809473777;1.7596532702915684;2.196768278707311;0.5841801003387066;1.3512395904958356;1.6111111111111112;1.0860082304526748;1.4410493827160493;1.6111111111111116;1.0860082304526752;1.44104938271605;1.6111111111111116;1.0860082304526752;1.44104938271605;1.6111111111111116;1.0860082304526752;1.4410493827160498;1.6111111111111112;1.086008230452675;1.4410493827160498;1.6111111111111107;1.0860082304526746;1.441049382716049;1.6111111111111112;1.0860082304526752;1.4410493827160495;1.611111111111111;1.0860082304526748;1.4410493827160493;0.2286562834580565;-0.24583175496936793;4.021947743445173;0.9871896443434852;4.021947743445173;0.9871896443434852;2.0493085327415175;1.1371394410227893;6.2386988365599825;5.766853419933198;12.249698836559968;11.777853419933201;20.818225112675535;20.346379696048746;2.984698836559974;2.512853419933203;2.788698836559974;2.316853419933205;2.7386988365599736;2.266853419933203;1.908698836559974;1.436853419933203;11.498998836559988;11.027153419933203;3.792907831779043;40.59627183364189;20.298135916820943;27.79151114384456;40.59627183364189;4.510696870404654;20.2981359216175;2.9495560959980436;0.3277284551108937;0.9762941674383966;27.833829810587513;3.092647756731946;3.2208916648779256;40.59627183364189;20.298135916820943;27.79151114384456;40.59627183364189;4.510696870404654;20.2981359216175;2.9495560959980436;0.3277284551108937;0.9762941674383966;27.833829810587513;3.092647756731946;3.2208916648779256;40.59627183364189;20.298135916820943;27.79151114384456;40.59627183364189;4.510696870404654;20.2981359216175;2.9495560959980436;0.3277284551108937;0.9762941674383966;27.833829810587513;3.092647756731946;3.2208916648779256;40.59627183364189;20.298135916820943;27.79151114384456;40.59627183364189;4.510696870404654;20.2981359216175;2.9495560959980436;0.3277284551108937;0.9762941674383966;27.833829810587513;3.092647756731946;3.2208916648779256;40.59627183364189;20.298135916820943;27.79151114384456;40.59627183364189;4.510696870404654;20.2981359216175;2.9495560959980436;0.3277284551108937;0.9762941674383966;27.833829810587513;3.092647756731946;3.2208916648779256;40.59627183364189;20.298135916820943;27.79151114384456;40.59627183364189;4.510696870404654;20.2981359216175;2.9495560959980436;0.3277284551108937;0.9762941674383966;27.833829810587513;3.092647756731946;3.2208916648779256;40.59627183364189;20.298135916820943;27.79151114384456;40.59627183364189;4.510696870404654;20.2981359216175;2.9495560959980436;0.3277284551108937;0.9762941674383966;27.833829810587513;3.092647756731946;3.2208916648779256;40.59627183364189;20.298135916820943;27.79151114384456;40.59627183364189;4.510696870404654;20.2981359216175;2.9495560959980436;0.3277284551108937;0.9762941674383966;27.833829810587513;3.092647756731946;3.2208916648779256;62.59772060569362;28.0;8.0;28.0;28.0;0.13337612895691198;0.06307796807356042;5.0;2.0;1.0;1.0;1.510362971081845;0.28867513459481287;0.4330127018922193;0.14433756729740643;1.510362971081845;0.28867513459481287;0.4330127018922193;0.14433756729740643;1.9464327078786217;2.643356132937298;1.7072863961405211;1.9464327078786217;2.643356132937298;1.7072863961405211;7.49156383156272;4.019385277895634;3.879445409770841;2.210343431045078;1.513420005986402;0.0;0.0;0.0;0.8323959812847467;0.5024231597369543;7.49156383156272;4.019385277895634;3.879445409770841;2.210343431045078;1.513420005986402;0.0;0.0;0.0;0.8323959812847467;0.5024231597369543;12.33333333333333;10.678461410373828;14.418278037858745;27.87836853605244;26.254901960784316;26.599999999999998;16.985544910179645;33.15289645924176;0.425287356321839;0.3682228072542699;0.49718200130547396;0.9613230529673256;0.9053414469235971;0.9172413793103448;0.5857084451786084;1.1432033261807504;40.59627183364189;20.298135916820943;27.79151114384456;40.59627183364189;4.510696870404654;20.2981359216175;2.9495560959980436;0.3277284551108937;0.9762941674383966;27.833829810587513;3.092647756731946;3.2208916648779256;5.0;2.0;1.0;1.0;11.52662037037037;2.638888888888889;0.9004629629629628;0.5173611111111112;2.324074074074074;2.277199074074074;50.0;4.5;0.5555555555555556;0.1111111111111111;0.1111111111111111;4.0;0.4444444444444444;4.0;0.4444444444444444;11.535265757960431;1.2816961953289367;4.019385277895633;0.44659836421062593;11.535265757960431;1.2816961953289367;4.019385277895633;0.44659836421062593;0.39482828447746154;0.043869809386384614;0.39482828447746154;0.043869809386384614;0.4241379310344827;0.7;0.4241379310344827;0.4241379310344827;0.7;-4.0;-0.4444444444444444;0.7142857142857143;0.00028571428571433355;8.0;0.8935711016541907;1.4080429822936391;2.2594207731864944;2.7616365979044266;2.7616365979044266;2.7616365979044266;25.91356194797153;40.833246486515534;65.52320242240833;80.08746133922837;80.08746133922837;80.08746133922837;0.18393878085369605;0.2898411878732892;0.4650946093557456;0.5684741460854368;0.5684741460854368;0.5684741460854368;0.18587583320595183;0.2928934944730439;0.4699925031163366;0.5744607258418136;0.5744607258418136;0.5744607258418136;3.9644098934733814;3.4499380128339325;2.5985602219410775;2.0963443972231453;2.0963443972231453;2.0963443972231453;6.664965218283638;12.84428697664405;15.544436029654516;16.050669580970194;16.050669580970194;16.050669580970194;35.68332320783173;25.714358998507173;23.613892248777812;23.771335745169186;23.771335745169186;23.771335745169186;9.0;1.0;0.0;-2.6831547003950464;137.67000000000004;59.6587879430024;47.46032924430513;11.332896515558172;11.332896515558172;47.46032924430513;11.332896515558172;47.46032924430513;5.41499046939678;5.917906046161393;12.841643245852019;0.0;34.61868599845312;0.5173611111111112;0.9004629629629628;2.638888888888889;11.52662037037037;3.0778610333622907;16.27137282702845;1.8079303141142722;16.27137282702845;1.8079303141142722;11.0;10.0;7.0;0.0;0.0;0.0;0.0;0.0;0.0;45.0;2.1972245773362196;2.4849066497880004;2.3978952727983707;2.0794415416798357;0.0;0.0;0.0;0.0;0.0;0.0;3.828641396489095;28.365859999999998;20.06414;2.0;0.25;3.468700000000003;43.52700000000001;3.5;1.5555555555555562;0.875;0.0;0.0;0.0;0.0;0.0;0.0;0.0;0.4375;0.1414141414141415;0.08750000000000002;0.0;0.0;0.0;0.0;0.0;0.0;0.0;0.6664141414141415;4.0;2.0;1.0;0.5;164.22032596245742;4.0;8.0;3.6635616461296463;4.394449154672439;5.241747015059643;5.993961427306569;6.842683282238422;7.601402334583733;8.449556542700426;9.210440366976517;10.058138107405037;78.45593987707244;2.833213344056216;4.110873864173311;5.594711379601839;7.158513997329321;8.7509996908987;37.44831227605939;128.15650064;4.419189677241379;88.0;10.0;38.0;40.0;5.673611111111111;2.1666666666666665