boiling_point;SMILES;IUPAC_name;InChIKey;SpAbs_A;SpMax_A;SpDiam_A;SpAD_A;SpMAD_A;LogEE_A;VE1_A;VE2_A;VE3_A;VR1_A;VR2_A;VR3_A;nAtom;nHeavyAtom;nH;nC;ATS0dv;ATS1dv;ATS2dv;ATS3dv;ATS4dv;ATS5dv;ATS6dv;ATS7dv;ATS8dv;ATS0d;ATS1d;ATS2d;ATS3d;ATS4d;ATS5d;ATS6d;ATS7d;ATS8d;ATS0s;ATS1s;ATS2s;ATS3s;ATS4s;ATS5s;ATS6s;ATS7s;ATS8s;ATS0Z;ATS1Z;ATS2Z;ATS3Z;ATS4Z;ATS5Z;ATS6Z;ATS7Z;ATS8Z;ATS0m;ATS1m;ATS2m;ATS3m;ATS4m;ATS5m;ATS6m;ATS7m;ATS8m;ATS0v;ATS1v;ATS2v;ATS3v;ATS4v;ATS5v;ATS6v;ATS7v;ATS8v;ATS0se;ATS1se;ATS2se;ATS3se;ATS4se;ATS5se;ATS6se;ATS7se;ATS8se;ATS0pe;ATS1pe;ATS2pe;ATS3pe;ATS4pe;ATS5pe;ATS6pe;ATS7pe;ATS8pe;ATS0are;ATS1are;ATS2are;ATS3are;ATS4are;ATS5are;ATS6are;ATS7are;ATS8are;ATS0p;ATS1p;ATS2p;ATS3p;ATS4p;ATS5p;ATS6p;ATS7p;ATS8p;ATS0i;ATS1i;ATS2i;ATS3i;ATS4i;ATS5i;ATS6i;ATS7i;ATS8i;AATS0dv;AATS1dv;AATS2dv;AATS3dv;AATS0d;AATS1d;AATS2d;AATS3d;AATS0s;AATS1s;AATS2s;AATS3s;AATS0Z;AATS1Z;AATS2Z;AATS3Z;AATS0m;AATS1m;AATS2m;AATS3m;AATS0v;AATS1v;AATS2v;AATS3v;AATS0se;AATS1se;AATS2se;AATS3se;AATS0pe;AATS1pe;AATS2pe;AATS3pe;AATS0are;AATS1are;AATS2are;AATS3are;AATS0p;AATS1p;AATS2p;AATS3p;AATS0i;AATS1i;AATS2i;AATS3i;ATSC0c;ATSC1c;ATSC2c;ATSC3c;ATSC4c;ATSC5c;ATSC6c;ATSC7c;ATSC8c;ATSC0dv;ATSC1dv;ATSC2dv;ATSC3dv;ATSC4dv;ATSC5dv;ATSC6dv;ATSC7dv;ATSC8dv;ATSC0d;ATSC1d;ATSC2d;ATSC3d;ATSC4d;ATSC5d;ATSC6d;ATSC7d;ATSC8d;ATSC0s;ATSC1s;ATSC2s;ATSC3s;ATSC4s;ATSC5s;ATSC6s;ATSC7s;ATSC8s;ATSC0Z;ATSC1Z;ATSC2Z;ATSC3Z;ATSC4Z;ATSC5Z;ATSC6Z;ATSC7Z;ATSC8Z;ATSC0m;ATSC1m;ATSC2m;ATSC3m;ATSC4m;ATSC5m;ATSC6m;ATSC7m;ATSC8m;ATSC0v;ATSC1v;ATSC2v;ATSC3v;ATSC4v;ATSC5v;ATSC6v;ATSC7v;ATSC8v;ATSC0se;ATSC1se;ATSC2se;ATSC3se;ATSC4se;ATSC5se;ATSC6se;ATSC7se;ATSC8se;ATSC0pe;ATSC1pe;ATSC2pe;ATSC3pe;ATSC4pe;ATSC5pe;ATSC6pe;ATSC7pe;ATSC8pe;ATSC0are;ATSC1are;ATSC2are;ATSC3are;ATSC4are;ATSC5are;ATSC6are;ATSC7are;ATSC8are;ATSC0p;ATSC1p;ATSC2p;ATSC3p;ATSC4p;ATSC5p;ATSC6p;ATSC7p;ATSC8p;ATSC0i;ATSC1i;ATSC2i;ATSC3i;ATSC4i;ATSC5i;ATSC6i;ATSC7i;ATSC8i;AATSC0c;AATSC1c;AATSC2c;AATSC3c;AATSC0dv;AATSC1dv;AATSC2dv;AATSC3dv;AATSC0d;AATSC1d;AATSC2d;AATSC3d;AATSC0s;AATSC1s;AATSC2s;AATSC3s;AATSC0Z;AATSC1Z;AATSC2Z;AATSC3Z;AATSC0m;AATSC1m;AATSC2m;AATSC3m;AATSC0v;AATSC1v;AATSC2v;AATSC3v;AATSC0se;AATSC1se;AATSC2se;AATSC3se;AATSC0pe;AATSC1pe;AATSC2pe;AATSC3pe;AATSC0are;AATSC1are;AATSC2are;AATSC3are;AATSC0p;AATSC1p;AATSC2p;AATSC3p;AATSC0i;AATSC1i;AATSC2i;AATSC3i;MATS1c;MATS2c;MATS3c;MATS1dv;MATS2dv;MATS3dv;MATS1s;MATS2s;MATS3s;MATS1Z;MATS2Z;MATS3Z;MATS1m;MATS2m;MATS3m;MATS1v;MATS2v;MATS3v;MATS1se;MATS2se;MATS3se;MATS1pe;MATS2pe;MATS3pe;MATS1are;MATS2are;MATS3are;MATS1p;MATS2p;MATS3p;MATS1i;MATS2i;MATS3i;GATS1c;GATS2c;GATS3c;GATS1dv;GATS2dv;GATS3dv;GATS1s;GATS2s;GATS3s;GATS1Z;GATS2Z;GATS3Z;GATS1m;GATS2m;GATS3m;GATS1v;GATS2v;GATS3v;GATS1se;GATS2se;GATS3se;GATS1pe;GATS2pe;GATS3pe;GATS1are;GATS2are;GATS3are;GATS1p;GATS2p;GATS3p;GATS1i;GATS2i;GATS3i;BCUTc-1h;BCUTc-1l;BCUTdv-1h;BCUTdv-1l;BCUTd-1h;BCUTd-1l;BCUTs-1h;BCUTs-1l;BCUTZ-1h;BCUTZ-1l;BCUTm-1h;BCUTm-1l;BCUTv-1h;BCUTv-1l;BCUTse-1h;BCUTse-1l;BCUTpe-1h;BCUTpe-1l;BCUTare-1h;BCUTare-1l;BCUTp-1h;BCUTp-1l;BCUTi-1h;BCUTi-1l;BalabanJ;SpAbs_DzZ;SpMax_DzZ;SpDiam_DzZ;SpAD_DzZ;SpMAD_DzZ;LogEE_DzZ;VE1_DzZ;VE2_DzZ;VE3_DzZ;VR1_DzZ;VR2_DzZ;VR3_DzZ;SpAbs_Dzm;SpMax_Dzm;SpDiam_Dzm;SpAD_Dzm;SpMAD_Dzm;LogEE_Dzm;VE1_Dzm;VE2_Dzm;VE3_Dzm;VR1_Dzm;VR2_Dzm;VR3_Dzm;SpAbs_Dzv;SpMax_Dzv;SpDiam_Dzv;SpAD_Dzv;SpMAD_Dzv;LogEE_Dzv;VE1_Dzv;VE2_Dzv;VE3_Dzv;VR1_Dzv;VR2_Dzv;VR3_Dzv;SpAbs_Dzse;SpMax_Dzse;SpDiam_Dzse;SpAD_Dzse;SpMAD_Dzse;LogEE_Dzse;VE1_Dzse;VE2_Dzse;VE3_Dzse;VR1_Dzse;VR2_Dzse;VR3_Dzse;SpAbs_Dzpe;SpMax_Dzpe;SpDiam_Dzpe;SpAD_Dzpe;SpMAD_Dzpe;LogEE_Dzpe;VE1_Dzpe;VE2_Dzpe;VE3_Dzpe;VR1_Dzpe;VR2_Dzpe;VR3_Dzpe;SpAbs_Dzare;SpMax_Dzare;SpDiam_Dzare;SpAD_Dzare;SpMAD_Dzare;LogEE_Dzare;VE1_Dzare;VE2_Dzare;VE3_Dzare;VR1_Dzare;VR2_Dzare;VR3_Dzare;SpAbs_Dzp;SpMax_Dzp;SpDiam_Dzp;SpAD_Dzp;SpMAD_Dzp;LogEE_Dzp;VE1_Dzp;VE2_Dzp;VE3_Dzp;VR1_Dzp;VR2_Dzp;VR3_Dzp;SpAbs_Dzi;SpMax_Dzi;SpDiam_Dzi;SpAD_Dzi;SpMAD_Dzi;LogEE_Dzi;VE1_Dzi;VE2_Dzi;VE3_Dzi;VR1_Dzi;VR2_Dzi;VR3_Dzi;BertzCT;nBonds;nBondsO;nBondsS;nBondsKS;RNCG;RPCG;C1SP3;C2SP3;C3SP3;C4SP3;Xc-3d;Xc-4d;Xc-5d;Xc-6d;Xc-3dv;Xc-4dv;Xc-5dv;Xc-6dv;Xpc-4d;Xpc-5d;Xpc-6d;Xpc-4dv;Xpc-5dv;Xpc-6dv;Xp-0d;Xp-1d;Xp-2d;Xp-3d;Xp-4d;Xp-5d;Xp-6d;Xp-7d;AXp-0d;AXp-1d;Xp-0dv;Xp-1dv;Xp-2dv;Xp-3dv;Xp-4dv;Xp-5dv;Xp-6dv;Xp-7dv;AXp-0dv;AXp-1dv;SZ;Sm;Sv;Sse;Spe;Sare;Sp;Si;MZ;Mm;Mv;Mse;Mpe;Mare;Mp;Mi;SpAbs_D;SpMax_D;SpDiam_D;SpAD_D;SpMAD_D;LogEE_D;VE1_D;VE2_D;VE3_D;VR1_D;VR2_D;VR3_D;NsCH3;NssCH2;NsssCH;NssssC;SsCH3;SssCH2;SsssCH;SssssC;MAXsCH3;MINsCH3;ECIndex;ETA_alpha;ETA_shape_p;ETA_shape_y;ETA_shape_x;ETA_beta;AETA_beta;ETA_beta_s;AETA_beta_s;ETA_eta;AETA_eta;ETA_eta_L;AETA_eta_L;ETA_eta_R;AETA_eta_R;ETA_eta_RL;AETA_eta_RL;ETA_eta_B;AETA_eta_B;ETA_eta_BR;AETA_eta_BR;ETA_epsilon_1;ETA_epsilon_2;ETA_epsilon_3;ETA_epsilon_4;ETA_epsilon_5;ETA_dBeta;AETA_dBeta;ETA_psi_1;ETA_dPsi_B;fragCpx;IC0;IC1;IC2;IC3;IC4;IC5;TIC0;TIC1;TIC2;TIC3;TIC4;TIC5;SIC0;SIC1;SIC2;SIC3;SIC4;SIC5;BIC0;BIC1;BIC2;BIC3;BIC4;BIC5;CIC0;CIC1;CIC2;CIC3;CIC4;CIC5;MIC0;MIC1;MIC2;MIC3;MIC4;MIC5;ZMIC0;ZMIC1;ZMIC2;ZMIC3;ZMIC4;ZMIC5;Kier1;Lipinski;GhoseFilter;FilterItLogS;VMcGowan;LabuteASA;PEOE_VSA6;PEOE_VSA7;SMR_VSA4;SMR_VSA5;SlogP_VSA4;SlogP_VSA5;EState_VSA3;EState_VSA4;EState_VSA5;EState_VSA7;EState_VSA8;VSA_EState4;VSA_EState5;VSA_EState7;VSA_EState8;MDEC-11;MID;AMID;MID_C;AMID_C;MPC2;MPC3;MPC4;MPC5;MPC6;MPC7;MPC8;MPC9;MPC10;TMPC10;piPC1;piPC2;piPC3;piPC4;piPC5;piPC6;piPC7;piPC8;piPC9;piPC10;TpiPC10;apol;bpol;nRot;RotRatio;SLogP;SMR;GGI1;GGI2;GGI3;GGI4;GGI5;GGI6;GGI7;GGI8;GGI9;GGI10;JGI1;JGI2;JGI3;JGI4;JGI5;JGI6;JGI7;JGI8;JGI9;JGI10;JGT10;Diameter;Radius;TopoShapeIndex;PetitjeanIndex;Vabc;VAdjMat;MWC01;MWC02;MWC03;MWC04;MWC05;MWC06;MWC07;MWC08;MWC09;MWC10;TMWC10;SRW02;SRW04;SRW06;SRW08;SRW10;TSRW10;MW;AMW;WPath;WPol;Zagreb1;Zagreb2;mZagreb1;mZagreb2
142.0;CCC(C)(CC)C(C)C;3-ethyl-2,3-dimethylpentane;MMASVVOQIKCFJZ-UHFFFAOYSA-N;10.06290355392354;2.2638209778523954;4.527641955704791;10.06290355392354;1.1181003948803934;3.0409706749043055;2.6986501294014644;0.2998500143779405;0.8873911802612171;24.419904416393926;2.7133227129326585;3.0900380388644892;29.0;9.0;20.0;9.0;38.0;42.0;40.0;22.0;5.0;0.0;0.0;0.0;0.0;58.0;68.0;125.0;144.0;129.0;108.0;45.0;0.0;0.0;47.84027777777778;56.58333333333333;84.91666666666666;121.66666666666666;163.0;138.0;45.0;0.0;0.0;344.0;408.0;569.0;702.0;584.0;258.0;45.0;0.0;0.0;1318.6983689999995;1396.2547279999994;1918.9627070000001;2257.9563;1504.4741090000002;442.46563199999997;45.72288;0.0;0.0;4433.327004362572;5682.86754140501;8170.261600201926;10460.648108310485;10225.934545508573;5866.63055672812;1398.768499391862;0.0;0.0;202.2339240000001;202.676768;382.21799599999997;510.35908800000004;693.9866119999999;737.5691519999999;302.33088;0.0;0.0;155.32250000000002;164.22;299.6675;400.77;535.2124999999999;545.8199999999999;217.79999999999998;0.0;0.0;153.05;160.0;294.03;393.12;527.1299999999999;542.52;217.79999999999998;0.0;0.0;33.992358096980006;44.582086200000006;67.188471442433;88.238693307282;97.211860175168;68.08613587822201;20.007580718205;0.0;0.0;4839.50224529498;4076.8058029780004;8519.524241937634;11281.197013458284;16044.93460342577;19017.253289278422;8321.294341091205;0.0;0.0;1.3103448275862069;1.5;0.7407407407407407;0.3055555555555556;2.0;2.4285714285714284;2.314814814814815;2.0;1.6496647509578544;2.020833333333333;1.5725308641975306;1.6898148148148147;11.862068965517242;14.571428571428571;10.537037037037036;9.75;45.47235755172412;49.86624028571426;35.53634642592593;31.360504166666665;152.8733449780197;202.95955505017895;151.3011407444801;145.28677928209007;6.9735835862068996;7.238456;7.078111037037036;7.088320666666667;5.35594827586207;5.865;5.549398148148149;5.56625;5.277586206896552;5.714285714285714;5.444999999999999;5.46;1.172150279206207;1.5922173642857145;1.244230952637648;1.2255374070455833;166.8793877687924;145.6002072492143;157.7689674432895;156.6832918535873;0.039427946741856394;-0.01062618465257003;0.006513193008604205;0.0027402590337243012;-0.04457196100941833;0.0020843239024358907;0.02414639634629577;0.0;0.0;29.172413793103445;15.212841854934599;-6.458977407847799;-32.22116527942924;-21.140309155766946;16.323424494649228;13.697978596908445;0.0;0.0;13.310344827586206;6.872770511296077;-7.784780023781215;-13.184304399524379;-1.4732461355529123;6.292508917954817;2.621878715814508;0.0;0.0;4.179118773946361;-2.2850112300171728;0.5702041220768932;1.842647641696395;-3.291790527150215;-1.244649227110586;2.319039833531506;0.0;0.0;155.17241379310346;-11.89060642092749;32.609988109393555;-38.70392390011894;-195.24375743162904;27.28894173602859;108.35315101070158;0.0;0.0;751.4441937931032;-57.581930558858275;157.9184445576696;-187.42918396908408;-945.4952997764562;132.15053063257983;524.7153422175977;0.0;0.0;1397.342566174485;-107.07605871068867;293.6560910140631;-348.53257110329156;-1758.188884029506;245.73955474103053;975.7305850011496;0.0;0.0;0.14720275862068946;-0.011279904875146948;0.030935139120096388;-0.036716090368606846;-0.1852160380499394;0.02588738168846276;0.1027881331747893;0.0;0.0;0.7603448275862053;-0.05826397146254697;0.15978894173602629;-0.18964922711058513;-0.9566944114149818;0.13371581450654452;0.5309304399524402;0.0;0.0;0.5586206896551719;-0.04280618311534082;0.11739595719381522;-0.13933412604043013;-0.7028775267538647;0.09824019024970654;0.3900713436385281;0.0;0.0;6.246771423200688;-0.4786798025441107;1.312779358477235;-1.558102757281088;-7.8599223577743516;1.0985701468387357;4.361969700683235;0.0;0.0;33.932561514511;-2.6001962846370508;7.131038310616434;-8.463638906493191;-42.69522299373732;5.967450473241971;23.694288643753655;0.0;0.0;0.0013595843704088412;-0.0003795065947346439;0.00012061468534452231;3.805915324617085e-05;1.0059453032104637;0.5433157805333785;-0.1196106927379222;-0.44751618443651725;0.4589774078478002;0.2454560896891456;-0.14416259303298545;-0.18311533888228304;0.14410754392918487;-0.08160754392918475;0.01055933559401654;0.025592328356894376;5.35077288941736;-0.42466451503312463;0.6038886686924733;-0.537554498612763;25.911868751486317;-2.056497519959224;2.9244156399568446;-2.6031831106817234;48.184226419809825;-3.8241449539531667;5.438075759519688;-4.840730154212383;0.005075957193816878;-0.00040285374554096246;0.0005728729466684516;-0.0005099456995639839;0.026218787158145008;-0.002080856123662392;0.0029590544765930793;-0.002634017043202571;0.01926278240190248;-0.001528792254119315;0.0021739992072928745;-0.0019351961950059742;0.2154059111448513;-0.017095707233718237;0.024310728860689537;-0.021640316073348445;1.1700883280865861;-0.09286415302275182;0.13205626501141546;-0.11755054036796099;-0.2791342729399885;0.08871438063696792;0.027993226514310448;0.5401046943600134;-0.11890377375010944;-0.4448712897294457;-0.5662961265184498;0.07327399597626512;0.17759187103674856;-0.0793650793650795;0.11286008230452665;-0.10046296296296305;-0.07936507936507907;0.11286008230452692;-0.10046296296296282;-0.07936507936507949;0.11286008230452671;-0.1004629629629631;-0.07936507936506763;0.1128600823045315;-0.10046296296295774;-0.07936507936508277;0.1128600823045254;-0.1004629629629645;-0.07936507936508304;0.11286008230452527;-0.10046296296296456;-0.0793650793650788;0.11286008230452696;-0.10046296296296277;-0.07936507936508524;0.11286008230452439;-0.10046296296296554;1.8150578681211222;0.9175583815900888;1.0900041510366802;1.1654846335697402;2.2751072585587955;2.1862358812713425;2.1768278707311475;0.7392721623755314;0.8336198334479332;1.6111111111111112;1.0860082304526748;1.3157407407407409;1.6111111111111116;1.0860082304526755;1.3157407407407413;1.6111111111111116;1.0860082304526752;1.3157407407407413;1.6111111111111116;1.0860082304526752;1.3157407407407409;1.6111111111111112;1.0860082304526752;1.315740740740741;1.6111111111111107;1.0860082304526746;1.3157407407407402;1.6111111111111112;1.086008230452675;1.3157407407407409;1.611111111111111;1.0860082304526748;1.3157407407407409;0.22975329145822304;-0.24601576572345737;4.023813411631639;0.9872078475567341;4.023813411631639;0.9872078475567341;2.039454916523399;1.126087266229212;6.239645903942478;5.765823143057122;12.25064590394246;11.776823143057136;20.81917218005799;20.345349419172617;2.9856459039424754;2.5118231430571325;2.78964590394248;2.3158231430571288;2.7396459039424768;2.2658231430571343;1.9096459039424778;1.435823143057131;11.49994590394246;11.026123143057132;3.919210850530797;39.71257143027719;19.85628571513859;26.42153774867194;39.71257143027718;4.412507936697464;19.85628572255592;2.948115677044702;0.32756840856052244;0.9758056970597748;28.090681667236492;3.1211868519151658;3.230077392420431;39.71257143027719;19.85628571513859;26.42153774867194;39.71257143027718;4.412507936697464;19.85628572255592;2.948115677044702;0.32756840856052244;0.9758056970597748;28.090681667236492;3.1211868519151658;3.230077392420431;39.71257143027719;19.85628571513859;26.42153774867194;39.71257143027718;4.412507936697464;19.85628572255592;2.948115677044702;0.32756840856052244;0.9758056970597748;28.090681667236492;3.1211868519151658;3.230077392420431;39.71257143027719;19.85628571513859;26.42153774867194;39.71257143027718;4.412507936697464;19.85628572255592;2.948115677044702;0.32756840856052244;0.9758056970597748;28.090681667236492;3.1211868519151658;3.230077392420431;39.71257143027719;19.85628571513859;26.42153774867194;39.71257143027718;4.412507936697464;19.85628572255592;2.948115677044702;0.32756840856052244;0.9758056970597748;28.090681667236492;3.1211868519151658;3.230077392420431;39.71257143027719;19.85628571513859;26.42153774867194;39.71257143027718;4.412507936697464;19.85628572255592;2.948115677044702;0.32756840856052244;0.9758056970597748;28.090681667236492;3.1211868519151658;3.230077392420431;39.71257143027719;19.85628571513859;26.42153774867194;39.71257143027718;4.412507936697464;19.85628572255592;2.948115677044702;0.32756840856052244;0.9758056970597748;28.090681667236492;3.1211868519151658;3.230077392420431;39.71257143027719;19.85628571513859;26.42153774867194;39.71257143027718;4.412507936697464;19.85628572255592;2.948115677044702;0.32756840856052244;0.9758056970597748;28.090681667236492;3.1211868519151658;3.230077392420431;68.10749561002055;28.0;8.0;28.0;28.0;0.133128361997789;0.06211761948782612;5.0;2.0;1.0;1.0;1.0912609923560823;0.14433756729740643;0.5525858577612694;0.14433756729740643;1.0912609923560823;0.14433756729740643;0.5525858577612694;0.14433756729740643;2.999018565639891;2.773782977068248;1.7072863961405211;2.999018565639891;2.773782977068248;1.7072863961405211;7.49156383156272;4.064696016533707;3.515837525811023;3.0092019217677626;1.066496580927726;0.0;0.0;0.0;0.8323959812847467;0.5080870020667134;7.49156383156272;4.064696016533707;3.515837525811023;3.0092019217677626;1.066496580927726;0.0;0.0;0.0;0.8323959812847467;0.5080870020667134;12.33333333333333;10.678461410373828;14.418278037858745;27.87836853605244;26.254901960784316;26.599999999999998;16.985544910179645;33.15289645924176;0.425287356321839;0.3682228072542699;0.49718200130547396;0.9613230529673256;0.9053414469235971;0.9172413793103448;0.5857084451786084;1.1432033261807504;39.71257143027719;19.85628571513859;26.42153774867194;39.71257143027718;4.412507936697464;19.85628572255592;2.948115677044702;0.32756840856052244;0.9758056970597748;28.090681667236492;3.1211868519151658;3.230077392420431;5.0;2.0;1.0;1.0;11.560185185185185;2.613425925925926;0.8263888888888887;0.5833333333333334;2.372685185185185;2.28125;48.0;4.5;0.5555555555555556;0.1111111111111111;0.1111111111111111;4.0;0.4444444444444444;4.0;0.4444444444444444;11.60117329794511;1.2890192553272344;4.064696016533707;0.45163289072596746;11.60117329794511;1.2890192553272344;4.064696016533707;0.45163289072596746;0.34951754583938754;0.03883528287104306;0.34951754583938754;0.03883528287104306;0.4241379310344827;0.7;0.4241379310344827;0.4241379310344827;0.7;-4.0;-0.4444444444444444;0.7142857142857143;0.00028571428571433355;8.0;0.8935711016541907;1.4080429822936391;2.3544168939507517;3.1416210809614564;3.1416210809614564;3.1416210809614564;25.91356194797153;40.833246486515534;68.2780899245718;91.10701134788223;91.10701134788223;91.10701134788223;0.18393878085369605;0.2898411878732892;0.4846492599110969;0.646692748306842;0.646692748306842;0.646692748306842;0.18587583320595183;0.2928934944730439;0.4897530829579427;0.6535030452082382;0.6535030452082382;0.6535030452082382;3.9644098934733814;3.4499380128339325;2.50356410117682;1.7163599141661154;1.7163599141661154;1.7163599141661154;6.664965218283638;12.84428697664405;16.68543443615401;17.478936256660806;17.478936256660806;17.478936256660806;35.68332320783173;25.714358998507173;21.71721746104956;20.9971884319162;20.9971884319162;20.9971884319162;9.0;1.0;0.0;-2.6831547003950464;137.67000000000004;59.6587879430024;47.46032924430513;11.332896515558172;11.332896515558172;47.46032924430513;11.332896515558172;47.46032924430513;5.41499046939678;5.917906046161393;12.841643245852019;0.0;34.61868599845312;0.5833333333333334;0.8263888888888887;2.613425925925926;11.560185185185185;3.006204377613209;16.261027642645878;1.8067808491828754;16.261027642645878;1.8067808491828754;11.0;12.0;5.0;0.0;0.0;0.0;0.0;0.0;0.0;45.0;2.1972245773362196;2.4849066497880004;2.5649493574615367;1.791759469228055;0.0;0.0;0.0;0.0;0.0;0.0;3.828641396489095;28.365859999999998;20.06414;3.0;0.375;3.468700000000003;43.52700000000001;3.5;2.000000000000001;0.625;0.0;0.0;0.0;0.0;0.0;0.0;0.0;0.4375;0.18181818181818188;0.052083333333333336;0.0;0.0;0.0;0.0;0.0;0.0;0.0;0.6714015151515152;4.0;2.0;1.0;0.5;164.22032596245742;4.0;8.0;3.6635616461296463;4.442651256490317;5.262690188904886;6.07073772800249;6.890609120147166;7.7039102096163115;8.523374050491318;9.337941716569905;10.15716030888516;79.0526362252372;2.833213344056216;4.110873864173311;5.638354669333745;7.242082359256962;8.867427438524983;37.691951675345216;128.15650064;4.419189677241379;86.0;12.0;38.0;42.0;5.673611111111111;2.25