boiling_point;SMILES;IUPAC_name;InChIKey;SpAbs_A;SpMax_A;SpDiam_A;SpAD_A;SpMAD_A;LogEE_A;VE1_A;VE2_A;VE3_A;VR1_A;VR2_A;VR3_A;nAtom;nHeavyAtom;nH;nC;ATS0dv;ATS1dv;ATS2dv;ATS3dv;ATS4dv;ATS5dv;ATS6dv;ATS7dv;ATS8dv;ATS0d;ATS1d;ATS2d;ATS3d;ATS4d;ATS5d;ATS6d;ATS7d;ATS8d;ATS0s;ATS1s;ATS2s;ATS3s;ATS4s;ATS5s;ATS6s;ATS7s;ATS8s;ATS0Z;ATS1Z;ATS2Z;ATS3Z;ATS4Z;ATS5Z;ATS6Z;ATS7Z;ATS8Z;ATS0m;ATS1m;ATS2m;ATS3m;ATS4m;ATS5m;ATS6m;ATS7m;ATS8m;ATS0v;ATS1v;ATS2v;ATS3v;ATS4v;ATS5v;ATS6v;ATS7v;ATS8v;ATS0se;ATS1se;ATS2se;ATS3se;ATS4se;ATS5se;ATS6se;ATS7se;ATS8se;ATS0pe;ATS1pe;ATS2pe;ATS3pe;ATS4pe;ATS5pe;ATS6pe;ATS7pe;ATS8pe;ATS0are;ATS1are;ATS2are;ATS3are;ATS4are;ATS5are;ATS6are;ATS7are;ATS8are;ATS0p;ATS1p;ATS2p;ATS3p;ATS4p;ATS5p;ATS6p;ATS7p;ATS8p;ATS0i;ATS1i;ATS2i;ATS3i;ATS4i;ATS5i;ATS6i;ATS7i;ATS8i;AATS0dv;AATS1dv;AATS2dv;AATS3dv;AATS0d;AATS1d;AATS2d;AATS3d;AATS0s;AATS1s;AATS2s;AATS3s;AATS0Z;AATS1Z;AATS2Z;AATS3Z;AATS0m;AATS1m;AATS2m;AATS3m;AATS0v;AATS1v;AATS2v;AATS3v;AATS0se;AATS1se;AATS2se;AATS3se;AATS0pe;AATS1pe;AATS2pe;AATS3pe;AATS0are;AATS1are;AATS2are;AATS3are;AATS0p;AATS1p;AATS2p;AATS3p;AATS0i;AATS1i;AATS2i;AATS3i;ATSC0c;ATSC1c;ATSC2c;ATSC3c;ATSC4c;ATSC5c;ATSC6c;ATSC7c;ATSC8c;ATSC0dv;ATSC1dv;ATSC2dv;ATSC3dv;ATSC4dv;ATSC5dv;ATSC6dv;ATSC7dv;ATSC8dv;ATSC0d;ATSC1d;ATSC2d;ATSC3d;ATSC4d;ATSC5d;ATSC6d;ATSC7d;ATSC8d;ATSC0s;ATSC1s;ATSC2s;ATSC3s;ATSC4s;ATSC5s;ATSC6s;ATSC7s;ATSC8s;ATSC0Z;ATSC1Z;ATSC2Z;ATSC3Z;ATSC4Z;ATSC5Z;ATSC6Z;ATSC7Z;ATSC8Z;ATSC0m;ATSC1m;ATSC2m;ATSC3m;ATSC4m;ATSC5m;ATSC6m;ATSC7m;ATSC8m;ATSC0v;ATSC1v;ATSC2v;ATSC3v;ATSC4v;ATSC5v;ATSC6v;ATSC7v;ATSC8v;ATSC0se;ATSC1se;ATSC2se;ATSC3se;ATSC4se;ATSC5se;ATSC6se;ATSC7se;ATSC8se;ATSC0pe;ATSC1pe;ATSC2pe;ATSC3pe;ATSC4pe;ATSC5pe;ATSC6pe;ATSC7pe;ATSC8pe;ATSC0are;ATSC1are;ATSC2are;ATSC3are;ATSC4are;ATSC5are;ATSC6are;ATSC7are;ATSC8are;ATSC0p;ATSC1p;ATSC2p;ATSC3p;ATSC4p;ATSC5p;ATSC6p;ATSC7p;ATSC8p;ATSC0i;ATSC1i;ATSC2i;ATSC3i;ATSC4i;ATSC5i;ATSC6i;ATSC7i;ATSC8i;AATSC0c;AATSC1c;AATSC2c;AATSC3c;AATSC0dv;AATSC1dv;AATSC2dv;AATSC3dv;AATSC0d;AATSC1d;AATSC2d;AATSC3d;AATSC0s;AATSC1s;AATSC2s;AATSC3s;AATSC0Z;AATSC1Z;AATSC2Z;AATSC3Z;AATSC0m;AATSC1m;AATSC2m;AATSC3m;AATSC0v;AATSC1v;AATSC2v;AATSC3v;AATSC0se;AATSC1se;AATSC2se;AATSC3se;AATSC0pe;AATSC1pe;AATSC2pe;AATSC3pe;AATSC0are;AATSC1are;AATSC2are;AATSC3are;AATSC0p;AATSC1p;AATSC2p;AATSC3p;AATSC0i;AATSC1i;AATSC2i;AATSC3i;MATS1c;MATS2c;MATS3c;MATS1dv;MATS2dv;MATS3dv;MATS1s;MATS2s;MATS3s;MATS1Z;MATS2Z;MATS3Z;MATS1m;MATS2m;MATS3m;MATS1v;MATS2v;MATS3v;MATS1se;MATS2se;MATS3se;MATS1pe;MATS2pe;MATS3pe;MATS1are;MATS2are;MATS3are;MATS1p;MATS2p;MATS3p;MATS1i;MATS2i;MATS3i;GATS1c;GATS2c;GATS3c;GATS1dv;GATS2dv;GATS3dv;GATS1s;GATS2s;GATS3s;GATS1Z;GATS2Z;GATS3Z;GATS1m;GATS2m;GATS3m;GATS1v;GATS2v;GATS3v;GATS1se;GATS2se;GATS3se;GATS1pe;GATS2pe;GATS3pe;GATS1are;GATS2are;GATS3are;GATS1p;GATS2p;GATS3p;GATS1i;GATS2i;GATS3i;BCUTc-1h;BCUTc-1l;BCUTdv-1h;BCUTdv-1l;BCUTd-1h;BCUTd-1l;BCUTs-1h;BCUTs-1l;BCUTZ-1h;BCUTZ-1l;BCUTm-1h;BCUTm-1l;BCUTv-1h;BCUTv-1l;BCUTse-1h;BCUTse-1l;BCUTpe-1h;BCUTpe-1l;BCUTare-1h;BCUTare-1l;BCUTp-1h;BCUTp-1l;BCUTi-1h;BCUTi-1l;BalabanJ;SpAbs_DzZ;SpMax_DzZ;SpDiam_DzZ;SpAD_DzZ;SpMAD_DzZ;LogEE_DzZ;VE1_DzZ;VE2_DzZ;VE3_DzZ;VR1_DzZ;VR2_DzZ;VR3_DzZ;SpAbs_Dzm;SpMax_Dzm;SpDiam_Dzm;SpAD_Dzm;SpMAD_Dzm;LogEE_Dzm;VE1_Dzm;VE2_Dzm;VE3_Dzm;VR1_Dzm;VR2_Dzm;VR3_Dzm;SpAbs_Dzv;SpMax_Dzv;SpDiam_Dzv;SpAD_Dzv;SpMAD_Dzv;LogEE_Dzv;VE1_Dzv;VE2_Dzv;VE3_Dzv;VR1_Dzv;VR2_Dzv;VR3_Dzv;SpAbs_Dzse;SpMax_Dzse;SpDiam_Dzse;SpAD_Dzse;SpMAD_Dzse;LogEE_Dzse;VE1_Dzse;VE2_Dzse;VE3_Dzse;VR1_Dzse;VR2_Dzse;VR3_Dzse;SpAbs_Dzpe;SpMax_Dzpe;SpDiam_Dzpe;SpAD_Dzpe;SpMAD_Dzpe;LogEE_Dzpe;VE1_Dzpe;VE2_Dzpe;VE3_Dzpe;VR1_Dzpe;VR2_Dzpe;VR3_Dzpe;SpAbs_Dzare;SpMax_Dzare;SpDiam_Dzare;SpAD_Dzare;SpMAD_Dzare;LogEE_Dzare;VE1_Dzare;VE2_Dzare;VE3_Dzare;VR1_Dzare;VR2_Dzare;VR3_Dzare;SpAbs_Dzp;SpMax_Dzp;SpDiam_Dzp;SpAD_Dzp;SpMAD_Dzp;LogEE_Dzp;VE1_Dzp;VE2_Dzp;VE3_Dzp;VR1_Dzp;VR2_Dzp;VR3_Dzp;SpAbs_Dzi;SpMax_Dzi;SpDiam_Dzi;SpAD_Dzi;SpMAD_Dzi;LogEE_Dzi;VE1_Dzi;VE2_Dzi;VE3_Dzi;VR1_Dzi;VR2_Dzi;VR3_Dzi;BertzCT;nBonds;nBondsO;nBondsS;nBondsKS;RNCG;RPCG;C1SP3;C2SP3;C3SP3;C4SP3;Xc-3d;Xc-4d;Xc-5d;Xc-6d;Xc-3dv;Xc-4dv;Xc-5dv;Xc-6dv;Xpc-4d;Xpc-5d;Xpc-6d;Xpc-4dv;Xpc-5dv;Xpc-6dv;Xp-0d;Xp-1d;Xp-2d;Xp-3d;Xp-4d;Xp-5d;Xp-6d;Xp-7d;AXp-0d;AXp-1d;Xp-0dv;Xp-1dv;Xp-2dv;Xp-3dv;Xp-4dv;Xp-5dv;Xp-6dv;Xp-7dv;AXp-0dv;AXp-1dv;SZ;Sm;Sv;Sse;Spe;Sare;Sp;Si;MZ;Mm;Mv;Mse;Mpe;Mare;Mp;Mi;SpAbs_D;SpMax_D;SpDiam_D;SpAD_D;SpMAD_D;LogEE_D;VE1_D;VE2_D;VE3_D;VR1_D;VR2_D;VR3_D;NsCH3;NssCH2;NsssCH;NssssC;SsCH3;SssCH2;SsssCH;SssssC;MAXsCH3;MINsCH3;ECIndex;ETA_alpha;ETA_shape_p;ETA_shape_y;ETA_shape_x;ETA_beta;AETA_beta;ETA_beta_s;AETA_beta_s;ETA_eta;AETA_eta;ETA_eta_L;AETA_eta_L;ETA_eta_R;AETA_eta_R;ETA_eta_RL;AETA_eta_RL;ETA_eta_B;AETA_eta_B;ETA_eta_BR;AETA_eta_BR;ETA_epsilon_1;ETA_epsilon_2;ETA_epsilon_3;ETA_epsilon_4;ETA_epsilon_5;ETA_dBeta;AETA_dBeta;ETA_psi_1;ETA_dPsi_B;fragCpx;IC0;IC1;IC2;IC3;IC4;IC5;TIC0;TIC1;TIC2;TIC3;TIC4;TIC5;SIC0;SIC1;SIC2;SIC3;SIC4;SIC5;BIC0;BIC1;BIC2;BIC3;BIC4;BIC5;CIC0;CIC1;CIC2;CIC3;CIC4;CIC5;MIC0;MIC1;MIC2;MIC3;MIC4;MIC5;ZMIC0;ZMIC1;ZMIC2;ZMIC3;ZMIC4;ZMIC5;Kier1;Lipinski;GhoseFilter;FilterItLogS;VMcGowan;LabuteASA;PEOE_VSA6;PEOE_VSA7;SMR_VSA4;SMR_VSA5;SlogP_VSA4;SlogP_VSA5;EState_VSA3;EState_VSA4;EState_VSA5;EState_VSA7;EState_VSA8;VSA_EState4;VSA_EState5;VSA_EState7;VSA_EState8;MDEC-11;MID;AMID;MID_C;AMID_C;MPC2;MPC3;MPC4;MPC5;MPC6;MPC7;MPC8;MPC9;MPC10;TMPC10;piPC1;piPC2;piPC3;piPC4;piPC5;piPC6;piPC7;piPC8;piPC9;piPC10;TpiPC10;apol;bpol;nRot;RotRatio;SLogP;SMR;GGI1;GGI2;GGI3;GGI4;GGI5;GGI6;GGI7;GGI8;GGI9;GGI10;JGI1;JGI2;JGI3;JGI4;JGI5;JGI6;JGI7;JGI8;JGI9;JGI10;JGT10;Diameter;Radius;TopoShapeIndex;PetitjeanIndex;Vabc;VAdjMat;MWC01;MWC02;MWC03;MWC04;MWC05;MWC06;MWC07;MWC08;MWC09;MWC10;TMWC10;SRW02;SRW04;SRW06;SRW08;SRW10;TSRW10;MW;AMW;WPath;WPol;Zagreb1;Zagreb2;mZagreb1;mZagreb2
344.1;CCCCCCCCCCCCCCCCCCCC;icosane;CBFCDTFDPHXCNY-UHFFFAOYSA-N;24.7629799993095;1.9776616524502573;3.955323304900514;24.7629799993095;1.2381489999654751;3.8090839037348414;4.1180702208548405;0.20590351104274202;2.108531841194717;113.22656896135581;5.66132844806779;5.422538026928567;62.0;20.0;42.0;20.0;74.0;72.0;68.0;64.0;60.0;56.0;52.0;48.0;44.0;116.0;150.0;244.0;288.0;272.0;256.0;240.0;224.0;208.0;90.5;110.25;185.0;232.75;220.5;208.25;196.0;183.75;171.5;762.0;936.0;1140.0;1136.0;1072.0;1008.0;944.0;880.0;816.0;2927.957108;3249.5159949999993;3565.492577999999;3429.699688999999;3232.942959999999;3036.186230999999;2839.4295019999995;2642.6727729999993;2445.916043999999;9775.855301085667;12865.759020799049;17318.77017473071;18176.996495631403;17170.19815067628;16163.399805721154;15156.601460766029;14149.803115810904;13143.004770855778;432.98580799999985;442.210348;852.14772;1192.37066;1129.48576;1066.60086;1003.71596;940.8310600000001;877.94616;333.3299999999999;359.1675;670.7850000000001;912.8824999999999;864.5799999999999;816.2774999999999;767.975;719.6725000000001;671.3700000000001;328.27999999999986;349.75;657.6600000000001;900.45;852.84;805.23;757.6200000000001;710.0100000000001;662.4000000000001;74.45174200365798;99.75796102;147.727365896376;165.38261132792;156.36108246852402;147.339553609128;138.318024749732;129.296495890336;120.27496703093999;10302.428506818458;8840.239769651802;18663.880779808176;28279.984746224523;26801.02959118593;25322.074436147333;23843.119281108735;22364.164126070136;20885.20897103154;1.1935483870967742;1.180327868852459;0.5666666666666667;0.3742690058479532;1.8709677419354838;2.459016393442623;2.033333333333333;1.6842105263157894;1.4596774193548387;1.8073770491803278;1.5416666666666667;1.3611111111111112;12.290322580645162;15.344262295081966;9.5;6.643274853801169;47.22511464516129;53.27075401639343;29.71243814999999;20.056723327485376;157.67508550138172;210.91408230818112;144.32308478942258;106.29822512065148;6.983642064516126;7.2493499672131145;7.101231;6.97292783625731;5.376290322580644;5.887991803278688;5.589875000000001;5.338494152046783;5.294838709677417;5.733606557377049;5.480500000000001;5.265789473684211;1.2008345484460965;1.6353764101639343;1.2310613824698;0.9671497738474854;166.16820172287836;144.92196343691478;155.5323398317348;165.38002775569896;0.08907842894437418;-0.004436660402071275;-0.04282628736485725;-0.00011355071454188922;-4.17198354004159e-06;-7.018372846605281e-08;-5.563234067211889e-10;-2.1148187367980853e-12;-3.879058532718638e-15;50.70967741935486;1.753381893860567;-22.986472424557753;-0.4734651404786685;-0.499479708636837;-0.5254942767950056;-0.551508844953174;-0.5775234131113429;-0.6035379812695119;12.774193548387103;1.2382934443288254;-5.240374609781476;-0.19979188345473453;-0.21644120707596248;-0.23309053069719043;-0.24973985431841828;-0.26638917793964606;-0.2830385015608742;4.548387096774193;-0.6363163371488048;-1.8678459937565046;0.0197710718002084;0.018730489073881647;0.017689906347554865;0.016649323621228108;0.015608740894901343;0.014568158168574631;338.7096774193549;-11.472424557752309;-157.1800208116545;-1.1186264308012515;-1.1446409989594204;-1.1706555671175876;-1.196670135275757;-1.2226847034339223;-1.2486992715920948;1640.2491541935474;-55.556826190426065;-761.1663125681575;-5.417105501560897;-5.543084699271606;-5.669063896982337;-5.795043094693053;-5.9210222924037765;-6.0470014901145;3050.1133433701134;-103.31029066253919;-1415.4212611860416;-10.073338998841187;-10.307602696488651;-10.541866394136122;-10.776130091783592;-11.010393789431028;-11.24465748707847;0.32131354838709636;-0.010883200832472621;-0.1491072549427736;-0.0010611737773149259;-0.0010858522372524594;-0.001110530697189996;-0.0011352091571275296;-0.0011598876170650627;-0.0011845660770025976;1.6596774193548345;-0.05621488033296761;-0.7701821019770887;-0.005481269510927169;-0.005608740894902285;-0.005736212278877408;-0.005863683662852521;-0.005991155046827644;-0.00611862643080276;1.2193548387096753;-0.0413007284078918;-0.5658480749219408;-0.004027055150885443;-0.004120707596254927;-0.004214360041624413;-0.004308012486993898;-0.004401664932363389;-0.004495317377732878;13.635425794728384;-0.46184506724079766;-6.327591601516811;-0.04503251222529356;-0.04607977995146323;-0.047127047677632844;-0.048174315403802515;-0.0492215831299721;-0.05026885085614177;74.0678493273735;-2.50874973528201;-34.37157800583645;-0.24461732112726997;-0.25030609603720644;-0.2559948709471428;-0.26168364585707926;-0.2673724207670162;-0.27306119567695264;0.001436748853941519;-7.273213773887336e-05;-0.0003568857280404771;-6.640392663268376e-07;0.8178980228928203;0.02874396547312405;-0.1915539368713146;-0.0027688019911033244;0.2060353798126952;0.020299892529980743;-0.04366978841484563;-0.001168373587454588;0.07336108220603538;-0.01043141536309516;-0.015565383281304206;0.00011562030292519533;5.4630593132154015;-0.1880725337336444;-1.3098335067637874;-0.006541675033925447;26.455631519250765;-0.9107676424660011;-6.3430526047346465;-0.0316789795412918;49.19537650596957;-1.693611322336708;-11.795177176550347;-0.05890841519790168;0.005182476586888651;-0.00017841312840119052;-0.0012425604578564467;-6.205694604180853e-06;0.026768990634755394;-0.0009215554152945509;-0.006418184183142406;-3.205420766624075e-05;0.019667013527575408;-0.0006770611214408492;-0.004715400624349507;-2.3550030122137094e-05;0.2199262224956191;-0.007571230610504879;-0.0527299300126401;-0.00026334802470931906;1.1946427310866692;-0.04112704484068869;-0.2864298167153037;-0.0014305106498670758;-0.05062272194569213;-0.24839812961145658;-0.0004621818660269949;0.03514370333291628;-0.23420271416454613;-0.0033852655387408316;-0.14219276828275815;-0.2121749408983453;0.0015760441292356415;-0.034426229508196626;-0.23976190476190468;-0.0011974380395433056;-0.03442622950819638;-0.2397619047619047;-0.0011974380395433086;-0.03442622950819775;-0.23976190476190523;-0.001197438039543279;-0.03442622950821714;-0.2397619047619142;-0.0011974380395428858;-0.03442622950818525;-0.23976190476189962;-0.0011974380395435352;-0.03442622950818292;-0.23976190476189863;-0.0011974380395435866;-0.034426229508196536;-0.23976190476190476;-0.001197438039543306;-0.034426229508196786;-0.2397619047619047;-0.0011974380395433008;1.5666008739728705;1.4505778748701381;0.962241252876756;1.498727735368956;1.5136821458863436;1.0059558353049711;1.7039007092198586;1.2852541371158397;0.8627182613744765;1.5499999999999996;1.4632738095238094;0.974199387357282;1.550000000000001;1.4632738095238105;0.974199387357283;1.5500000000000003;1.4632738095238096;0.9741993873572822;1.5500000000000003;1.4632738095238098;0.9741993873572823;1.550000000000001;1.4632738095238103;0.9741993873572826;1.5500000000000007;1.4632738095238103;0.9741993873572826;1.55;1.4632738095238096;0.9741993873572822;1.5499999999999996;1.463273809523809;0.9741993873572817;0.21339595483563562;-0.19706064564211118;2.2108618422842405;0.9871436102075691;2.2108618422842405;0.9871436102075691;2.02580170319529;1.3035867564185502;6.21351984077712;5.8030063001423775;12.224519840777125;11.814006300142388;20.793046116892626;20.382532576257894;2.9595198407771397;2.549006300142373;2.7635198407771364;2.3530063001423693;2.7135198407771344;2.303006300142377;1.8835198407771314;1.4730063001423728;11.473819840777127;11.063306300142361;2.8896766777949185;277.13022897465606;138.56511448732797;219.78893388612215;277.13022897465595;13.856511448732798;138.56511448732797;4.3952096856215475;0.21976048428107736;2.1736624205980304;90.64939980794014;4.532469990397007;5.200146496756428;277.13022897465606;138.56511448732797;219.78893388612215;277.13022897465595;13.856511448732798;138.56511448732797;4.3952096856215475;0.21976048428107736;2.1736624205980304;90.64939980794014;4.532469990397007;5.200146496756428;277.13022897465606;138.56511448732797;219.78893388612215;277.13022897465595;13.856511448732798;138.56511448732797;4.3952096856215475;0.21976048428107736;2.1736624205980304;90.64939980794014;4.532469990397007;5.200146496756428;277.13022897465606;138.56511448732797;219.78893388612215;277.13022897465595;13.856511448732798;138.56511448732797;4.3952096856215475;0.21976048428107736;2.1736624205980304;90.64939980794014;4.532469990397007;5.200146496756428;277.13022897465606;138.56511448732797;219.78893388612215;277.13022897465595;13.856511448732798;138.56511448732797;4.3952096856215475;0.21976048428107736;2.1736624205980304;90.64939980794014;4.532469990397007;5.200146496756428;277.13022897465606;138.56511448732797;219.78893388612215;277.13022897465595;13.856511448732798;138.56511448732797;4.3952096856215475;0.21976048428107736;2.1736624205980304;90.64939980794014;4.532469990397007;5.200146496756428;277.13022897465606;138.56511448732797;219.78893388612215;277.13022897465595;13.856511448732798;138.56511448732797;4.3952096856215475;0.21976048428107736;2.1736624205980304;90.64939980794014;4.532469990397007;5.200146496756428;277.13022897465606;138.56511448732797;219.78893388612215;277.13022897465595;13.856511448732798;138.56511448732797;4.3952096856215475;0.21976048428107736;2.1736624205980304;90.64939980794014;4.532469990397007;5.200146496756428;132.11730005192322;61.0;19.0;61.0;61.0;0.0596255663164496;0.024306232496678622;2.0;18.0;0.0;0.0;0.0;0.0;0.0;0.0;0.0;0.0;0.0;0.0;0.0;0.0;0.0;0.0;0.0;0.0;14.72792206135786;9.914213562373096;6.656854249492382;4.457106781186548;2.9748737341529172;1.978553390593274;1.3106601717798216;0.864276695296637;0.736396103067893;0.5218007138091103;14.72792206135786;9.914213562373096;6.656854249492382;4.457106781186548;2.9748737341529172;1.978553390593274;1.3106601717798216;0.864276695296637;0.736396103067893;0.5218007138091103;27.0;23.52476896178503;31.37838387950336;59.64457392571014;56.23529411764705;56.96000000000001;36.769644311377256;70.72108256440774;0.43548387096774194;0.3794317574481456;0.5061029657984413;0.9620092568662926;0.907020872865275;0.9187096774193549;0.5930587792157622;1.1406626220065763;277.13022897465606;138.56511448732797;219.78893388612215;277.13022897465595;13.856511448732798;138.56511448732797;4.3952096856215475;0.21976048428107736;2.1736624205980304;90.64939980794014;4.532469990397007;5.200146496756428;2.0;18.0;0.0;0.0;4.593663243913023;26.40633675608698;0.0;0.0;2.2968316219565117;2.2968316219565117;542.0;10.0;0.1;0.0;0.0;9.5;0.475;9.5;0.475;27.451433528859184;1.3725716764429592;9.914213562373096;0.49571067811865477;27.451433528859184;1.3725716764429592;9.914213562373096;0.49571067811865477;0.0;0.0;0.0;0.0;0.4290322580645161;0.7;0.4290322580645161;0.4290322580645161;0.7;-9.5;-0.475;0.7142857142857143;0.00028571428571433355;19.0;0.907165767573082;1.0584546687309146;1.6053725191570336;2.037861731142788;2.452014651828912;2.845032504410935;56.24427758953108;65.6241894613167;99.53309618773608;126.34742733085285;152.02490841339252;176.39201527347797;0.15235738297552684;0.17776616919473745;0.26962035436361426;0.34225638942871495;0.4118128667594421;0.4778197352089116;0.15296003109553707;0.1784693215170889;0.2706868350060379;0.3436101811887365;0.41344178847693097;0.47970974644107944;5.047030542813793;4.8957416416559605;4.348823791229841;3.916334579244087;3.502181658557963;3.10916380597594;6.707922182468873;8.5250531742756;10.683964532596349;12.663356127574804;14.550861919342205;16.331320051273305;79.17093669257332;73.84965312545532;70.59927401924081;65.2103901124741;59.186632336755096;52.8005967896794;20.0;0.0;0.0;-7.936616906958246;292.6600000000001;129.67315120136516;129.42226361204948;0.0;0.0;129.42226361204948;0.0;129.42226361204948;0.0;0.0;115.57478921266822;0.0;13.847474399381248;0.0;0.0;26.40633675608698;4.593663243913023;0.05263157894736841;38.82842777924477;1.9414213889622385;38.82842777924477;1.9414213889622385;18.0;17.0;16.0;15.0;14.0;13.0;12.0;11.0;10.0;165.0;2.995732273553991;2.9444389791664403;2.8903717578961645;2.833213344056216;2.772588722239781;2.70805020110221;2.6390573296152584;2.5649493574615367;2.4849066497880004;2.3978952727983707;5.111987788356544;61.405305999999996;42.134693999999996;17.0;0.8947368421052632;8.048000000000007;94.4540000000001;0.5;0.22222222222222232;0.125;0.08000000000000002;0.05555555555555555;0.04081632653061225;0.03125;0.02469135802469135;0.020000000000000004;0.01652892561983471;0.02631578947368421;0.012345679012345685;0.007352941176470588;0.005000000000000001;0.0037037037037037034;0.002915451895043732;0.002403846153846154;0.002057613168724279;0.0018181818181818186;0.001652892561983471;0.06556609896398365;19.0;10.0;0.9;0.47368421052631576;354.47616342488766;5.247927513443585;19.0;4.31748811353631;4.976733742420574;5.645446897643238;6.315358001522335;6.98933526597456;7.663407664893479;8.339739766019143;9.015905747298426;9.69356866855007;101.95698386785817;3.6635616461296463;4.709530201312334;5.877735781779639;7.102499355774649;8.359134886757962;49.71246187175423;282.3286513440007;4.553687924903238;1330.0;17.0;74.0;72.0;6.5;5.25