boiling_point;SMILES;IUPAC_name;InChIKey;SpAbs_A;SpMax_A;SpDiam_A;SpAD_A;SpMAD_A;LogEE_A;VE1_A;VE2_A;VE3_A;VR1_A;VR2_A;VR3_A;nAtom;nHeavyAtom;nH;nC;ATS0dv;ATS1dv;ATS2dv;ATS3dv;ATS4dv;ATS5dv;ATS6dv;ATS7dv;ATS8dv;ATS0d;ATS1d;ATS2d;ATS3d;ATS4d;ATS5d;ATS6d;ATS7d;ATS8d;ATS0s;ATS1s;ATS2s;ATS3s;ATS4s;ATS5s;ATS6s;ATS7s;ATS8s;ATS0Z;ATS1Z;ATS2Z;ATS3Z;ATS4Z;ATS5Z;ATS6Z;ATS7Z;ATS8Z;ATS0m;ATS1m;ATS2m;ATS3m;ATS4m;ATS5m;ATS6m;ATS7m;ATS8m;ATS0v;ATS1v;ATS2v;ATS3v;ATS4v;ATS5v;ATS6v;ATS7v;ATS8v;ATS0se;ATS1se;ATS2se;ATS3se;ATS4se;ATS5se;ATS6se;ATS7se;ATS8se;ATS0pe;ATS1pe;ATS2pe;ATS3pe;ATS4pe;ATS5pe;ATS6pe;ATS7pe;ATS8pe;ATS0are;ATS1are;ATS2are;ATS3are;ATS4are;ATS5are;ATS6are;ATS7are;ATS8are;ATS0p;ATS1p;ATS2p;ATS3p;ATS4p;ATS5p;ATS6p;ATS7p;ATS8p;ATS0i;ATS1i;ATS2i;ATS3i;ATS4i;ATS5i;ATS6i;ATS7i;ATS8i;AATS0dv;AATS1dv;AATS2dv;AATS3dv;AATS0d;AATS1d;AATS2d;AATS3d;AATS0s;AATS1s;AATS2s;AATS3s;AATS0Z;AATS1Z;AATS2Z;AATS3Z;AATS0m;AATS1m;AATS2m;AATS3m;AATS0v;AATS1v;AATS2v;AATS3v;AATS0se;AATS1se;AATS2se;AATS3se;AATS0pe;AATS1pe;AATS2pe;AATS3pe;AATS0are;AATS1are;AATS2are;AATS3are;AATS0p;AATS1p;AATS2p;AATS3p;AATS0i;AATS1i;AATS2i;AATS3i;ATSC0c;ATSC1c;ATSC2c;ATSC3c;ATSC4c;ATSC5c;ATSC6c;ATSC7c;ATSC8c;ATSC0dv;ATSC1dv;ATSC2dv;ATSC3dv;ATSC4dv;ATSC5dv;ATSC6dv;ATSC7dv;ATSC8dv;ATSC0d;ATSC1d;ATSC2d;ATSC3d;ATSC4d;ATSC5d;ATSC6d;ATSC7d;ATSC8d;ATSC0s;ATSC1s;ATSC2s;ATSC3s;ATSC4s;ATSC5s;ATSC6s;ATSC7s;ATSC8s;ATSC0Z;ATSC1Z;ATSC2Z;ATSC3Z;ATSC4Z;ATSC5Z;ATSC6Z;ATSC7Z;ATSC8Z;ATSC0m;ATSC1m;ATSC2m;ATSC3m;ATSC4m;ATSC5m;ATSC6m;ATSC7m;ATSC8m;ATSC0v;ATSC1v;ATSC2v;ATSC3v;ATSC4v;ATSC5v;ATSC6v;ATSC7v;ATSC8v;ATSC0se;ATSC1se;ATSC2se;ATSC3se;ATSC4se;ATSC5se;ATSC6se;ATSC7se;ATSC8se;ATSC0pe;ATSC1pe;ATSC2pe;ATSC3pe;ATSC4pe;ATSC5pe;ATSC6pe;ATSC7pe;ATSC8pe;ATSC0are;ATSC1are;ATSC2are;ATSC3are;ATSC4are;ATSC5are;ATSC6are;ATSC7are;ATSC8are;ATSC0p;ATSC1p;ATSC2p;ATSC3p;ATSC4p;ATSC5p;ATSC6p;ATSC7p;ATSC8p;ATSC0i;ATSC1i;ATSC2i;ATSC3i;ATSC4i;ATSC5i;ATSC6i;ATSC7i;ATSC8i;AATSC0c;AATSC1c;AATSC2c;AATSC3c;AATSC0dv;AATSC1dv;AATSC2dv;AATSC3dv;AATSC0d;AATSC1d;AATSC2d;AATSC3d;AATSC0s;AATSC1s;AATSC2s;AATSC3s;AATSC0Z;AATSC1Z;AATSC2Z;AATSC3Z;AATSC0m;AATSC1m;AATSC2m;AATSC3m;AATSC0v;AATSC1v;AATSC2v;AATSC3v;AATSC0se;AATSC1se;AATSC2se;AATSC3se;AATSC0pe;AATSC1pe;AATSC2pe;AATSC3pe;AATSC0are;AATSC1are;AATSC2are;AATSC3are;AATSC0p;AATSC1p;AATSC2p;AATSC3p;AATSC0i;AATSC1i;AATSC2i;AATSC3i;MATS1c;MATS2c;MATS3c;MATS1dv;MATS2dv;MATS3dv;MATS1s;MATS2s;MATS3s;MATS1Z;MATS2Z;MATS3Z;MATS1m;MATS2m;MATS3m;MATS1v;MATS2v;MATS3v;MATS1se;MATS2se;MATS3se;MATS1pe;MATS2pe;MATS3pe;MATS1are;MATS2are;MATS3are;MATS1p;MATS2p;MATS3p;MATS1i;MATS2i;MATS3i;GATS1c;GATS2c;GATS3c;GATS1dv;GATS2dv;GATS3dv;GATS1s;GATS2s;GATS3s;GATS1Z;GATS2Z;GATS3Z;GATS1m;GATS2m;GATS3m;GATS1v;GATS2v;GATS3v;GATS1se;GATS2se;GATS3se;GATS1pe;GATS2pe;GATS3pe;GATS1are;GATS2are;GATS3are;GATS1p;GATS2p;GATS3p;GATS1i;GATS2i;GATS3i;BCUTc-1h;BCUTc-1l;BCUTdv-1h;BCUTdv-1l;BCUTd-1h;BCUTd-1l;BCUTs-1h;BCUTs-1l;BCUTZ-1h;BCUTZ-1l;BCUTm-1h;BCUTm-1l;BCUTv-1h;BCUTv-1l;BCUTse-1h;BCUTse-1l;BCUTpe-1h;BCUTpe-1l;BCUTare-1h;BCUTare-1l;BCUTp-1h;BCUTp-1l;BCUTi-1h;BCUTi-1l;BalabanJ;SpAbs_DzZ;SpMax_DzZ;SpDiam_DzZ;SpAD_DzZ;SpMAD_DzZ;LogEE_DzZ;VE1_DzZ;VE2_DzZ;VE3_DzZ;VR1_DzZ;VR2_DzZ;VR3_DzZ;SpAbs_Dzm;SpMax_Dzm;SpDiam_Dzm;SpAD_Dzm;SpMAD_Dzm;LogEE_Dzm;VE1_Dzm;VE2_Dzm;VE3_Dzm;VR1_Dzm;VR2_Dzm;VR3_Dzm;SpAbs_Dzv;SpMax_Dzv;SpDiam_Dzv;SpAD_Dzv;SpMAD_Dzv;LogEE_Dzv;VE1_Dzv;VE2_Dzv;VE3_Dzv;VR1_Dzv;VR2_Dzv;VR3_Dzv;SpAbs_Dzse;SpMax_Dzse;SpDiam_Dzse;SpAD_Dzse;SpMAD_Dzse;LogEE_Dzse;VE1_Dzse;VE2_Dzse;VE3_Dzse;VR1_Dzse;VR2_Dzse;VR3_Dzse;SpAbs_Dzpe;SpMax_Dzpe;SpDiam_Dzpe;SpAD_Dzpe;SpMAD_Dzpe;LogEE_Dzpe;VE1_Dzpe;VE2_Dzpe;VE3_Dzpe;VR1_Dzpe;VR2_Dzpe;VR3_Dzpe;SpAbs_Dzare;SpMax_Dzare;SpDiam_Dzare;SpAD_Dzare;SpMAD_Dzare;LogEE_Dzare;VE1_Dzare;VE2_Dzare;VE3_Dzare;VR1_Dzare;VR2_Dzare;VR3_Dzare;SpAbs_Dzp;SpMax_Dzp;SpDiam_Dzp;SpAD_Dzp;SpMAD_Dzp;LogEE_Dzp;VE1_Dzp;VE2_Dzp;VE3_Dzp;VR1_Dzp;VR2_Dzp;VR3_Dzp;SpAbs_Dzi;SpMax_Dzi;SpDiam_Dzi;SpAD_Dzi;SpMAD_Dzi;LogEE_Dzi;VE1_Dzi;VE2_Dzi;VE3_Dzi;VR1_Dzi;VR2_Dzi;VR3_Dzi;BertzCT;nBonds;nBondsO;nBondsS;nBondsKS;RNCG;RPCG;C1SP3;C2SP3;C3SP3;C4SP3;Xc-3d;Xc-4d;Xc-5d;Xc-6d;Xc-3dv;Xc-4dv;Xc-5dv;Xc-6dv;Xpc-4d;Xpc-5d;Xpc-6d;Xpc-4dv;Xpc-5dv;Xpc-6dv;Xp-0d;Xp-1d;Xp-2d;Xp-3d;Xp-4d;Xp-5d;Xp-6d;Xp-7d;AXp-0d;AXp-1d;Xp-0dv;Xp-1dv;Xp-2dv;Xp-3dv;Xp-4dv;Xp-5dv;Xp-6dv;Xp-7dv;AXp-0dv;AXp-1dv;SZ;Sm;Sv;Sse;Spe;Sare;Sp;Si;MZ;Mm;Mv;Mse;Mpe;Mare;Mp;Mi;SpAbs_D;SpMax_D;SpDiam_D;SpAD_D;SpMAD_D;LogEE_D;VE1_D;VE2_D;VE3_D;VR1_D;VR2_D;VR3_D;NsCH3;NssCH2;NsssCH;NssssC;SsCH3;SssCH2;SsssCH;SssssC;MAXsCH3;MINsCH3;ECIndex;ETA_alpha;ETA_shape_p;ETA_shape_y;ETA_shape_x;ETA_beta;AETA_beta;ETA_beta_s;AETA_beta_s;ETA_eta;AETA_eta;ETA_eta_L;AETA_eta_L;ETA_eta_R;AETA_eta_R;ETA_eta_RL;AETA_eta_RL;ETA_eta_B;AETA_eta_B;ETA_eta_BR;AETA_eta_BR;ETA_epsilon_1;ETA_epsilon_2;ETA_epsilon_3;ETA_epsilon_4;ETA_epsilon_5;ETA_dBeta;AETA_dBeta;ETA_psi_1;ETA_dPsi_B;fragCpx;IC0;IC1;IC2;IC3;IC4;IC5;TIC0;TIC1;TIC2;TIC3;TIC4;TIC5;SIC0;SIC1;SIC2;SIC3;SIC4;SIC5;BIC0;BIC1;BIC2;BIC3;BIC4;BIC5;CIC0;CIC1;CIC2;CIC3;CIC4;CIC5;MIC0;MIC1;MIC2;MIC3;MIC4;MIC5;ZMIC0;ZMIC1;ZMIC2;ZMIC3;ZMIC4;ZMIC5;Kier1;Lipinski;GhoseFilter;FilterItLogS;VMcGowan;LabuteASA;PEOE_VSA6;PEOE_VSA7;SMR_VSA4;SMR_VSA5;SlogP_VSA4;SlogP_VSA5;EState_VSA3;EState_VSA4;EState_VSA5;EState_VSA7;EState_VSA8;VSA_EState4;VSA_EState5;VSA_EState7;VSA_EState8;MDEC-11;MID;AMID;MID_C;AMID_C;MPC2;MPC3;MPC4;MPC5;MPC6;MPC7;MPC8;MPC9;MPC10;TMPC10;piPC1;piPC2;piPC3;piPC4;piPC5;piPC6;piPC7;piPC8;piPC9;piPC10;TpiPC10;apol;bpol;nRot;RotRatio;SLogP;SMR;GGI1;GGI2;GGI3;GGI4;GGI5;GGI6;GGI7;GGI8;GGI9;GGI10;JGI1;JGI2;JGI3;JGI4;JGI5;JGI6;JGI7;JGI8;JGI9;JGI10;JGT10;Diameter;Radius;TopoShapeIndex;PetitjeanIndex;Vabc;VAdjMat;MWC01;MWC02;MWC03;MWC04;MWC05;MWC06;MWC07;MWC08;MWC09;MWC10;TMWC10;SRW02;SRW04;SRW06;SRW08;SRW10;TSRW10;MW;AMW;WPath;WPol;Zagreb1;Zagreb2;mZagreb1;mZagreb2
86.0;CCC(C)(C)CC;3,3-dimethylpentane;AEXMKKGTQYQZCS-UHFFFAOYSA-N;7.595865303863626;2.1357792050698565;4.271558410139713;7.595865303863626;1.0851236148376608;2.7802254520446406;2.429858131562406;0.34712259022320086;0.5311579296363413;15.793870807872809;2.256267258267544;2.4029469972800293;23.0;7.0;16.0;7.0;28.0;28.0;21.0;8.0;1.0;0.0;0.0;0.0;0.0;44.0;48.0;91.0;90.0;78.0;54.0;9.0;0.0;0.0;38.0625;44.75;66.75;93.5;106.0;60.0;9.0;0.0;0.0;268.0;312.0;422.0;444.0;277.0;84.0;9.0;0.0;0.0;1026.1058709999998;1059.2981339999997;1410.4796239999998;1313.6326619999995;593.4994809999998;121.41359999999997;9.144576;0.0;0.0;3461.9582231401932;4376.8872724242765;6118.039963438034;7044.624533005812;5474.660402291383;2180.4394309077643;279.75369987837234;0.0;0.0;160.27903600000005;159.12520800000001;296.735264;382.099416;498.123172;365.192064;60.466176;0.0;0.0;122.95750000000004;128.775;231.98;299.05499999999995;376.3225;265.98;43.56000000000001;0.0;0.0;121.19000000000003;125.5;227.76;293.58000000000004;372.33;265.32;43.56000000000001;0.0;0.0;26.63610647758399;34.55010896;50.806666867885994;62.156350018188;57.100084019413;28.022685292752;4.001516143640999;0.0;0.0;3846.242925017984;3210.7268999464004;6665.652931317486;8492.18967849539;12174.914103225816;9794.782583441352;1664.2588682182407;0.0;0.0;1.2173913043478262;1.2727272727272727;0.5;0.14814814814814814;1.9130434782608696;2.1818181818181817;2.1666666666666665;1.6666666666666667;1.6548913043478262;2.034090909090909;1.5892857142857142;1.7314814814814814;11.652173913043478;14.181818181818182;10.047619047619047;8.222222222222221;44.61329873913042;48.149915181818166;33.582848190476184;24.32653077777777;150.51992274522578;198.94942147383074;145.66761817709605;130.456009870478;6.968653739130437;7.232964000000001;7.065125333333333;7.075915111111112;5.3459782608695665;5.853409090909091;5.523333333333333;5.538055555555554;5.26913043478261;5.704545454545454;5.422857142857143;5.436666666666667;1.1580915859819125;1.5704594981818183;1.209682544473476;1.1510435188553334;167.22795326165146;145.94213181574548;158.70602217422586;157.2627718239887;0.0315211167089678;-0.008356297762427103;0.008061374297024445;-0.016674045087004763;-0.02162916759280016;0.01805364643664936;0.004783931354074328;0.0;0.0;21.739130434782602;8.94517958412098;-11.39319470699433;-21.126654064272213;-1.3137996219281662;11.568998109640832;2.4499054820415878;0.0;0.0;9.913043478260867;2.6918714555765586;-7.44990548204159;-5.274102079395085;2.098298676748584;2.551984877126656;0.42533081285444263;0.0;0.0;3.3641304347826084;-1.897211720226842;1.1448487712665407;-0.06143667296786287;-2.7811909262759924;1.4439981096408299;0.4689272211720223;0.0;0.0;121.73913043478264;-12.098298676748584;23.345935727788266;-90.17013232514178;-82.18336483931948;79.39508506616258;20.841209829867676;0.0;0.0;589.5388264347828;-58.587709459356944;113.05597059735369;-436.6615220642718;-397.9844794914935;384.48184332703147;100.92648387334582;0.0;0.0;1096.2726219649105;-108.94634752446282;210.23240498861267;-811.9907463932641;-740.0691341603181;714.9604056292887;187.67710647768834;0.0;0.0;0.11548660869565203;-0.011476930056709505;0.022146888468809946;-0.08553899432892109;-0.07796242722117261;0.07531735349716207;0.019770805293005178;0.0;0.0;0.5965217391304339;-0.05928166351607159;0.11439508506615972;-0.4418336483931976;-0.4026984877126626;0.3890359168242025;0.10212192816635277;0.0;0.0;0.43826086956521704;-0.04355387523629764;0.08404536862003574;-0.32461247637051294;-0.2958601134215483;0.2858223062381901;0.07502835538752459;0.0;0.0;4.900848691438608;-0.48704086374544553;0.9398366667588057;-3.629976437602814;-3.308453367395865;3.1962056683295157;0.8390039879364986;0.0;0.0;26.621487874186418;-2.6456137017826444;5.105207690158313;-19.71808962109785;-17.971571200780264;17.361839917947922;4.557482978461314;0.0;0.0;0.0013704833351725133;-0.0003798317164739592;0.00019193748326248677;-0.00030877861272231045;0.9451795841209827;0.4065990720054991;-0.2712665406427221;-0.3912343345235595;0.43100189035916814;0.12235779343529812;-0.1773787019533712;-0.0976685570258349;0.1462665406427221;-0.08623689637394737;0.02725830407777478;-0.0011377161660715346;5.293005671077506;-0.5499226671249356;0.5558556125663873;-1.6698172652804033;25.632122888468817;-2.663077702698043;2.6918088237465163;-8.086324482671701;47.66402704195263;-4.952106705657401;5.005533452109826;-15.036865673949334;0.005021156899810958;-0.0005216786389413412;0.0005273068683049987;-0.0015840554505355759;0.025935727788279735;-0.002694621068912345;0.0027236925015752316;-0.00818210459987403;0.019054820415879;-0.001979721601649893;0.002001080205238946;-0.0060113421550094985;0.21308037788863513;-0.022138221079338435;0.02237706349425728;-0.06722178588153359;1.1574559945298442;-0.12025516826284748;0.1215525640513884;-0.36514980779810835;-0.27715164914876317;0.14005094285829175;-0.22530636075442836;0.43018181818181817;-0.2870000000000001;-0.4139259259259261;-0.5895873109120279;0.1863604892684053;-0.007778376114401833;-0.10389610389610389;0.105017006802721;-0.3154761904761904;-0.10389610389610326;0.10501700680272123;-0.31547619047619013;-0.10389610389610357;0.10501700680272118;-0.3154761904761903;-0.10389610389609254;0.10501700680272537;-0.31547619047618575;-0.10389610389611025;0.10501700680271862;-0.315476190476193;-0.10389610389611054;0.1050170068027186;-0.3154761904761932;-0.1038961038961026;0.1050170068027216;-0.31547619047618997;-0.10389610389610952;0.10501700680271887;-0.31547619047619285;1.8165041137009132;0.8780401269032214;1.3880894101267225;1.2880000000000003;2.5300000000000007;1.6491851851851855;2.1922455573505655;0.6422801753981077;1.1429127026865316;1.6428571428571428;1.0756802721088434;1.5059523809523807;1.6428571428571423;1.0756802721088434;1.5059523809523805;1.6428571428571428;1.0756802721088434;1.505952380952381;1.6428571428571432;1.0756802721088434;1.5059523809523812;1.6428571428571417;1.0756802721088428;1.5059523809523798;1.6428571428571421;1.075680272108843;1.5059523809523803;1.6428571428571432;1.0756802721088439;1.5059523809523812;1.6428571428571421;1.0756802721088432;1.5059523809523805;0.21692203911171518;-0.23675840348077923;4.017980314291134;0.9872569003884865;4.017980314291134;0.9872569003884865;2.0389718195019544;1.160308981913074;6.227568348741103;5.7765484595796295;12.2385683487411;11.787548459579622;20.80709462485662;20.35607473569515;2.9735683487411024;2.522548459579629;2.7775683487411036;2.326548459579628;2.727568348741102;2.276548459579629;1.8975683487411028;1.4465484595796296;11.487868348741092;11.036848459579629;3.3604351426960575;26.139622351037914;13.069811175518959;18.30587915301875;26.139622351037918;3.7342317644339884;13.069816600422277;2.600503804792825;0.37150054354183215;0.5990302533916778;18.551930565390002;2.6502757950557148;2.56389891330536;26.139622351037914;13.069811175518959;18.30587915301875;26.139622351037918;3.7342317644339884;13.069816600422277;2.600503804792825;0.37150054354183215;0.5990302533916778;18.551930565390002;2.6502757950557148;2.56389891330536;26.139622351037914;13.069811175518959;18.30587915301875;26.139622351037918;3.7342317644339884;13.069816600422277;2.600503804792825;0.37150054354183215;0.5990302533916778;18.551930565390002;2.6502757950557148;2.56389891330536;26.139622351037914;13.069811175518959;18.30587915301875;26.139622351037918;3.7342317644339884;13.069816600422277;2.600503804792825;0.37150054354183215;0.5990302533916778;18.551930565390002;2.6502757950557148;2.56389891330536;26.139622351037914;13.069811175518959;18.30587915301875;26.139622351037918;3.7342317644339884;13.069816600422277;2.600503804792825;0.37150054354183215;0.5990302533916778;18.551930565390002;2.6502757950557148;2.56389891330536;26.139622351037914;13.069811175518959;18.30587915301875;26.139622351037918;3.7342317644339884;13.069816600422277;2.600503804792825;0.37150054354183215;0.5990302533916778;18.551930565390002;2.6502757950557148;2.56389891330536;26.139622351037914;13.069811175518959;18.30587915301875;26.139622351037918;3.7342317644339884;13.069816600422277;2.600503804792825;0.37150054354183215;0.5990302533916778;18.551930565390002;2.6502757950557148;2.56389891330536;26.139622351037914;13.069811175518959;18.30587915301875;26.139622351037918;3.7342317644339884;13.069816600422277;2.600503804792825;0.37150054354183215;0.5990302533916778;18.551930565390002;2.6502757950557148;2.56389891330536;38.0;22.0;6.0;22.0;22.0;0.16739316325286788;0.0694567075936343;4.0;2.0;0.0;1.0;1.2071067811865475;0.25;0.0;0.0;1.2071067811865475;0.25;0.0;0.0;1.7071067811865475;1.0;0.25;1.7071067811865475;1.0;0.25;5.914213562373096;3.121320343559643;2.871320343559643;1.914213562373095;0.25;0.0;0.0;0.0;0.8448876517675851;0.5202200572599405;5.914213562373096;3.121320343559643;2.871320343559643;1.914213562373095;0.25;0.0;0.0;0.0;0.8448876517675851;0.5202200572599405;9.666666666666663;8.34276912829906;11.334622430286997;22.10269482884195;20.803921568627455;21.08;13.38843592814371;26.322317167393408;0.4202898550724636;0.3627290925347418;0.49280967088204336;0.9609867316887805;0.9045183290707589;0.9165217391304347;0.5821059099192918;1.1444485724953655;26.139622351037914;13.069811175518959;18.30587915301875;26.139622351037918;3.7342317644339884;13.069816600422277;2.600503804792825;0.37150054354183215;0.5990302533916778;18.551930565390002;2.6502757950557148;2.56389891330536;4.0;2.0;0.0;1.0;9.07638888888889;2.5902777777777777;0.0;0.5833333333333334;2.298611111111111;2.2395833333333335;34.0;3.5;0.5714285714285714;0.0;0.14285714285714285;3.0;0.42857142857142855;3.0;0.42857142857142855;7.840271760057103;1.1200388228653004;3.1213203435596424;0.44590290622280604;7.840271760057103;1.1200388228653004;3.1213203435596424;0.44590290622280604;0.29289321881345254;0.04184188840192179;0.29289321881345254;0.04184188840192179;0.42173913043478256;0.7;0.42173913043478256;0.42173913043478256;0.7;-3.0;-0.42857142857142855;0.7142857142857144;0.00028571428571444457;6.0;0.8865408928220899;1.306170651709187;2.04445108611554;2.566190216550323;2.566190216550323;2.566190216550323;20.39044053490807;30.041924989311298;47.02237498065742;59.02237498065743;59.02237498065743;59.02237498065743;0.19598292262472913;0.28874826174542273;0.45195602624123155;0.5672941459581902;0.5672941459581902;0.5672941459581902;0.1988013201316891;0.2929007020200309;0.4584555299763243;0.5754523078289725;0.5754523078289725;0.5754523078289725;3.637021063234923;3.217391304347826;2.479110869941473;1.9573717395066899;1.9573717395066899;1.9573717395066899;6.640762870645904;11.680935904638826;14.338687799911735;14.864600843389994;14.864600843389994;14.864600843389994;27.765075162887893;21.217420313642563;19.842310671205333;20.03452107189308;20.03452107189308;20.03452107189308;7.0;1.0;0.0;-2.207932278361068;109.49000000000004;46.92890371420919;40.53659204461451;5.41499046939678;5.41499046939678;40.53659204461451;5.41499046939678;40.53659204461451;5.41499046939678;0.0;12.841643245852019;0.0;27.694948798762496;0.5833333333333334;0.0;2.5902777777777777;9.07638888888889;2.039648902655506;12.442703820042826;1.777529117148975;12.442703820042826;1.777529117148975;8.0;6.0;1.0;0.0;0.0;0.0;0.0;0.0;0.0;28.0;1.9459101490553132;2.1972245773362196;1.9459101490553132;0.6931471805599453;0.0;0.0;0.0;0.0;0.0;0.0;3.367295829986474;22.358688;16.051312;2.0;0.3333333333333333;2.832600000000001;34.362999999999985;3.0;1.1111111111111114;0.125;0.0;0.0;0.0;0.0;0.0;0.0;0.0;0.5;0.13888888888888892;0.020833333333333332;0.0;0.0;0.0;0.0;0.0;0.0;0.0;0.6597222222222222;4.0;2.0;1.0;0.5;129.62835551474285;3.584962500721156;6.0;3.367295829986474;4.04305126783455;4.844187086458591;5.54907608489522;6.354370040797351;7.063903961472068;7.870547844507712;8.580918882296782;9.387900611668426;70.06125160991718;2.5649493574615367;3.8066624897703196;5.262690188904886;6.767343125265392;8.282230063296685;33.68387522469882;100.12520051199999;4.353269587478261;44.0;6.0;28.0;28.0;4.5625;1.75