boiling_point;SMILES;IUPAC_name;InChIKey;SpAbs_A;SpMax_A;SpDiam_A;SpAD_A;SpMAD_A;LogEE_A;VE1_A;VE2_A;VE3_A;VR1_A;VR2_A;VR3_A;nAtom;nHeavyAtom;nH;nC;ATS0dv;ATS1dv;ATS2dv;ATS3dv;ATS4dv;ATS5dv;ATS6dv;ATS7dv;ATS8dv;ATS0d;ATS1d;ATS2d;ATS3d;ATS4d;ATS5d;ATS6d;ATS7d;ATS8d;ATS0s;ATS1s;ATS2s;ATS3s;ATS4s;ATS5s;ATS6s;ATS7s;ATS8s;ATS0Z;ATS1Z;ATS2Z;ATS3Z;ATS4Z;ATS5Z;ATS6Z;ATS7Z;ATS8Z;ATS0m;ATS1m;ATS2m;ATS3m;ATS4m;ATS5m;ATS6m;ATS7m;ATS8m;ATS0v;ATS1v;ATS2v;ATS3v;ATS4v;ATS5v;ATS6v;ATS7v;ATS8v;ATS0se;ATS1se;ATS2se;ATS3se;ATS4se;ATS5se;ATS6se;ATS7se;ATS8se;ATS0pe;ATS1pe;ATS2pe;ATS3pe;ATS4pe;ATS5pe;ATS6pe;ATS7pe;ATS8pe;ATS0are;ATS1are;ATS2are;ATS3are;ATS4are;ATS5are;ATS6are;ATS7are;ATS8are;ATS0p;ATS1p;ATS2p;ATS3p;ATS4p;ATS5p;ATS6p;ATS7p;ATS8p;ATS0i;ATS1i;ATS2i;ATS3i;ATS4i;ATS5i;ATS6i;ATS7i;ATS8i;AATS0dv;AATS1dv;AATS2dv;AATS3dv;AATS0d;AATS1d;AATS2d;AATS3d;AATS0s;AATS1s;AATS2s;AATS3s;AATS0Z;AATS1Z;AATS2Z;AATS3Z;AATS0m;AATS1m;AATS2m;AATS3m;AATS0v;AATS1v;AATS2v;AATS3v;AATS0se;AATS1se;AATS2se;AATS3se;AATS0pe;AATS1pe;AATS2pe;AATS3pe;AATS0are;AATS1are;AATS2are;AATS3are;AATS0p;AATS1p;AATS2p;AATS3p;AATS0i;AATS1i;AATS2i;AATS3i;ATSC0c;ATSC1c;ATSC2c;ATSC3c;ATSC4c;ATSC5c;ATSC6c;ATSC7c;ATSC8c;ATSC0dv;ATSC1dv;ATSC2dv;ATSC3dv;ATSC4dv;ATSC5dv;ATSC6dv;ATSC7dv;ATSC8dv;ATSC0d;ATSC1d;ATSC2d;ATSC3d;ATSC4d;ATSC5d;ATSC6d;ATSC7d;ATSC8d;ATSC0s;ATSC1s;ATSC2s;ATSC3s;ATSC4s;ATSC5s;ATSC6s;ATSC7s;ATSC8s;ATSC0Z;ATSC1Z;ATSC2Z;ATSC3Z;ATSC4Z;ATSC5Z;ATSC6Z;ATSC7Z;ATSC8Z;ATSC0m;ATSC1m;ATSC2m;ATSC3m;ATSC4m;ATSC5m;ATSC6m;ATSC7m;ATSC8m;ATSC0v;ATSC1v;ATSC2v;ATSC3v;ATSC4v;ATSC5v;ATSC6v;ATSC7v;ATSC8v;ATSC0se;ATSC1se;ATSC2se;ATSC3se;ATSC4se;ATSC5se;ATSC6se;ATSC7se;ATSC8se;ATSC0pe;ATSC1pe;ATSC2pe;ATSC3pe;ATSC4pe;ATSC5pe;ATSC6pe;ATSC7pe;ATSC8pe;ATSC0are;ATSC1are;ATSC2are;ATSC3are;ATSC4are;ATSC5are;ATSC6are;ATSC7are;ATSC8are;ATSC0p;ATSC1p;ATSC2p;ATSC3p;ATSC4p;ATSC5p;ATSC6p;ATSC7p;ATSC8p;ATSC0i;ATSC1i;ATSC2i;ATSC3i;ATSC4i;ATSC5i;ATSC6i;ATSC7i;ATSC8i;AATSC0c;AATSC1c;AATSC2c;AATSC3c;AATSC0dv;AATSC1dv;AATSC2dv;AATSC3dv;AATSC0d;AATSC1d;AATSC2d;AATSC3d;AATSC0s;AATSC1s;AATSC2s;AATSC3s;AATSC0Z;AATSC1Z;AATSC2Z;AATSC3Z;AATSC0m;AATSC1m;AATSC2m;AATSC3m;AATSC0v;AATSC1v;AATSC2v;AATSC3v;AATSC0se;AATSC1se;AATSC2se;AATSC3se;AATSC0pe;AATSC1pe;AATSC2pe;AATSC3pe;AATSC0are;AATSC1are;AATSC2are;AATSC3are;AATSC0p;AATSC1p;AATSC2p;AATSC3p;AATSC0i;AATSC1i;AATSC2i;AATSC3i;MATS1c;MATS2c;MATS3c;MATS1dv;MATS2dv;MATS3dv;MATS1s;MATS2s;MATS3s;MATS1Z;MATS2Z;MATS3Z;MATS1m;MATS2m;MATS3m;MATS1v;MATS2v;MATS3v;MATS1se;MATS2se;MATS3se;MATS1pe;MATS2pe;MATS3pe;MATS1are;MATS2are;MATS3are;MATS1p;MATS2p;MATS3p;MATS1i;MATS2i;MATS3i;GATS1c;GATS2c;GATS3c;GATS1dv;GATS2dv;GATS3dv;GATS1s;GATS2s;GATS3s;GATS1Z;GATS2Z;GATS3Z;GATS1m;GATS2m;GATS3m;GATS1v;GATS2v;GATS3v;GATS1se;GATS2se;GATS3se;GATS1pe;GATS2pe;GATS3pe;GATS1are;GATS2are;GATS3are;GATS1p;GATS2p;GATS3p;GATS1i;GATS2i;GATS3i;BCUTc-1h;BCUTc-1l;BCUTdv-1h;BCUTdv-1l;BCUTd-1h;BCUTd-1l;BCUTs-1h;BCUTs-1l;BCUTZ-1h;BCUTZ-1l;BCUTm-1h;BCUTm-1l;BCUTv-1h;BCUTv-1l;BCUTse-1h;BCUTse-1l;BCUTpe-1h;BCUTpe-1l;BCUTare-1h;BCUTare-1l;BCUTp-1h;BCUTp-1l;BCUTi-1h;BCUTi-1l;BalabanJ;SpAbs_DzZ;SpMax_DzZ;SpDiam_DzZ;SpAD_DzZ;SpMAD_DzZ;LogEE_DzZ;VE1_DzZ;VE2_DzZ;VE3_DzZ;VR1_DzZ;VR2_DzZ;VR3_DzZ;SpAbs_Dzm;SpMax_Dzm;SpDiam_Dzm;SpAD_Dzm;SpMAD_Dzm;LogEE_Dzm;VE1_Dzm;VE2_Dzm;VE3_Dzm;VR1_Dzm;VR2_Dzm;VR3_Dzm;SpAbs_Dzv;SpMax_Dzv;SpDiam_Dzv;SpAD_Dzv;SpMAD_Dzv;LogEE_Dzv;VE1_Dzv;VE2_Dzv;VE3_Dzv;VR1_Dzv;VR2_Dzv;VR3_Dzv;SpAbs_Dzse;SpMax_Dzse;SpDiam_Dzse;SpAD_Dzse;SpMAD_Dzse;LogEE_Dzse;VE1_Dzse;VE2_Dzse;VE3_Dzse;VR1_Dzse;VR2_Dzse;VR3_Dzse;SpAbs_Dzpe;SpMax_Dzpe;SpDiam_Dzpe;SpAD_Dzpe;SpMAD_Dzpe;LogEE_Dzpe;VE1_Dzpe;VE2_Dzpe;VE3_Dzpe;VR1_Dzpe;VR2_Dzpe;VR3_Dzpe;SpAbs_Dzare;SpMax_Dzare;SpDiam_Dzare;SpAD_Dzare;SpMAD_Dzare;LogEE_Dzare;VE1_Dzare;VE2_Dzare;VE3_Dzare;VR1_Dzare;VR2_Dzare;VR3_Dzare;SpAbs_Dzp;SpMax_Dzp;SpDiam_Dzp;SpAD_Dzp;SpMAD_Dzp;LogEE_Dzp;VE1_Dzp;VE2_Dzp;VE3_Dzp;VR1_Dzp;VR2_Dzp;VR3_Dzp;SpAbs_Dzi;SpMax_Dzi;SpDiam_Dzi;SpAD_Dzi;SpMAD_Dzi;LogEE_Dzi;VE1_Dzi;VE2_Dzi;VE3_Dzi;VR1_Dzi;VR2_Dzi;VR3_Dzi;BertzCT;nBonds;nBondsO;nBondsS;nBondsKS;RNCG;RPCG;C1SP3;C2SP3;C3SP3;C4SP3;Xc-3d;Xc-4d;Xc-5d;Xc-6d;Xc-3dv;Xc-4dv;Xc-5dv;Xc-6dv;Xpc-4d;Xpc-5d;Xpc-6d;Xpc-4dv;Xpc-5dv;Xpc-6dv;Xp-0d;Xp-1d;Xp-2d;Xp-3d;Xp-4d;Xp-5d;Xp-6d;Xp-7d;AXp-0d;AXp-1d;Xp-0dv;Xp-1dv;Xp-2dv;Xp-3dv;Xp-4dv;Xp-5dv;Xp-6dv;Xp-7dv;AXp-0dv;AXp-1dv;SZ;Sm;Sv;Sse;Spe;Sare;Sp;Si;MZ;Mm;Mv;Mse;Mpe;Mare;Mp;Mi;SpAbs_D;SpMax_D;SpDiam_D;SpAD_D;SpMAD_D;LogEE_D;VE1_D;VE2_D;VE3_D;VR1_D;VR2_D;VR3_D;NsCH3;NssCH2;NsssCH;NssssC;SsCH3;SssCH2;SsssCH;SssssC;MAXsCH3;MINsCH3;ECIndex;ETA_alpha;ETA_shape_p;ETA_shape_y;ETA_shape_x;ETA_beta;AETA_beta;ETA_beta_s;AETA_beta_s;ETA_eta;AETA_eta;ETA_eta_L;AETA_eta_L;ETA_eta_R;AETA_eta_R;ETA_eta_RL;AETA_eta_RL;ETA_eta_B;AETA_eta_B;ETA_eta_BR;AETA_eta_BR;ETA_epsilon_1;ETA_epsilon_2;ETA_epsilon_3;ETA_epsilon_4;ETA_epsilon_5;ETA_dBeta;AETA_dBeta;ETA_psi_1;ETA_dPsi_B;fragCpx;IC0;IC1;IC2;IC3;IC4;IC5;TIC0;TIC1;TIC2;TIC3;TIC4;TIC5;SIC0;SIC1;SIC2;SIC3;SIC4;SIC5;BIC0;BIC1;BIC2;BIC3;BIC4;BIC5;CIC0;CIC1;CIC2;CIC3;CIC4;CIC5;MIC0;MIC1;MIC2;MIC3;MIC4;MIC5;ZMIC0;ZMIC1;ZMIC2;ZMIC3;ZMIC4;ZMIC5;Kier1;Lipinski;GhoseFilter;FilterItLogS;VMcGowan;LabuteASA;PEOE_VSA6;PEOE_VSA7;SMR_VSA4;SMR_VSA5;SlogP_VSA4;SlogP_VSA5;EState_VSA3;EState_VSA4;EState_VSA5;EState_VSA7;EState_VSA8;VSA_EState4;VSA_EState5;VSA_EState7;VSA_EState8;MDEC-11;MID;AMID;MID_C;AMID_C;MPC2;MPC3;MPC4;MPC5;MPC6;MPC7;MPC8;MPC9;MPC10;TMPC10;piPC1;piPC2;piPC3;piPC4;piPC5;piPC6;piPC7;piPC8;piPC9;piPC10;TpiPC10;apol;bpol;nRot;RotRatio;SLogP;SMR;GGI1;GGI2;GGI3;GGI4;GGI5;GGI6;GGI7;GGI8;GGI9;GGI10;JGI1;JGI2;JGI3;JGI4;JGI5;JGI6;JGI7;JGI8;JGI9;JGI10;JGT10;Diameter;Radius;TopoShapeIndex;PetitjeanIndex;Vabc;VAdjMat;MWC01;MWC02;MWC03;MWC04;MWC05;MWC06;MWC07;MWC08;MWC09;MWC10;TMWC10;SRW02;SRW04;SRW06;SRW08;SRW10;TSRW10;MW;AMW;WPath;WPol;Zagreb1;Zagreb2;mZagreb1;mZagreb2
135.0;CCC(C)CCC(C)C;2,5-dimethylheptane;HQZHQNKZOYIKQC-UHFFFAOYSA-N;10.150470419531821;2.035648404256702;4.071296808513404;10.150470419531821;1.1278300466146467;3.0179493670190167;2.811432000126969;0.312381333347441;0.928333446467581;24.418903588661525;2.7132115098512806;3.0899970539275743;29.0;9.0;20.0;9.0;34.0;33.0;28.0;22.0;17.0;9.0;2.0;0.0;0.0;54.0;63.0;113.0;119.0;113.0;93.0;57.0;45.0;18.0;46.30555555555556;54.916666666666664;84.91666666666666;111.36111111111109;111.66666666666666;85.33333333333333;72.0;57.0;18.0;344.0;408.0;519.0;517.0;416.0;338.0;245.0;105.0;18.0;1318.6983689999995;1396.2547279999994;1676.8306889999997;1519.5339669999998;1153.454237;1002.0727969999998;620.5856179999998;178.81516799999997;18.289152;4433.327004362572;5682.86754140501;7720.00677332348;8331.17657783931;7156.840987564176;5593.499124532371;4358.609484457958;2402.6029626669224;559.5073997567447;202.2339240000001;202.676768;382.170564;505.45049199999994;561.07922;435.356852;314.353352;307.120896;120.932352;155.32250000000002;164.22;299.4225;390.91749999999996;424.9925;328.63250000000005;241.145;227.04000000000002;87.12;153.05;160.0;293.85;384.75;420.21;325.16999999999996;237.78000000000003;225.72000000000003;87.12;33.992358096980006;44.5820862;65.175622872735;75.179395021225;69.14088573335601;53.110676584262;42.088371442433;28.034757580017;8.003032287282;4839.50224529498;4076.8058029780004;8508.590416560735;11635.403701752226;13670.269996329756;10723.293511629461;7378.375037127633;7939.753089355017;3328.5177364364818;1.1724137931034482;1.1785714285714286;0.5185185185185185;0.3055555555555556;1.8620689655172413;2.25;2.0925925925925926;1.6527777777777777;1.5967432950191571;1.9613095238095237;1.5725308641975306;1.5466820987654317;11.862068965517242;14.571428571428571;9.61111111111111;7.180555555555555;45.47235755172412;49.86624028571426;31.05242016666666;21.104638430555553;152.8733449780197;202.95955505017895;142.96308839487926;115.71078580332374;6.9735835862068996;7.238456;7.077232666666667;7.020145722222221;5.35594827586207;5.865;5.5448611111111115;5.429409722222221;5.277586206896552;5.714285714285714;5.441666666666667;5.34375;1.172150279206207;1.5922173642857143;1.2069559791247224;1.0441582641836806;166.8793877687924;145.6002072492143;157.56648919556918;161.60282919100314;0.04081162440528909;-0.006921284685110662;-0.004168525857694021;-0.015843745638697414;-0.002498522990539715;0.015005524789785096;-0.017148174871095948;0.001500510052355201;0.009668406998352919;25.172413793103445;6.2128418549346005;-11.838287752675384;-9.048751486325802;1.932223543400712;-4.926278240190248;-7.474435196195007;7.077288941736029;5.479191438763378;9.310344827586206;1.8727705112960753;-4.888228299643282;-0.9429250891795482;-0.5219976218787153;-3.570749108204519;-0.27467300832342406;2.6218787158145074;1.048751486325803;3.6609195402298855;-1.7291253798388164;0.6170233848592945;-1.0384132646320516;-0.8373959571938168;2.1417954815695603;-1.2813119302417757;-0.5169441141498213;0.8139120095124852;155.17241379310346;-11.890606420927488;-17.39001189060644;-70.60047562425686;-5.826397146254454;43.935790725327;-74.40546967895364;15.249702734839497;43.34126040428063;751.4441937931032;-57.58193055885829;-84.21357344233039;-341.8927126932222;-28.215145973840706;212.765233414982;-360.318930472057;73.84882594173583;209.88613688703907;1397.342566174485;-107.07605871068864;-156.59873586438215;-635.7640985947132;-52.4672687682374;395.64603693599423;-670.0284373821337;137.3250452964581;390.2922340004598;0.14720275862068946;-0.011279904875146945;-0.01649686087990356;-0.06697443519619409;-0.00552715338882356;0.041679248513673335;-0.07058400475624231;0.014466478002376677;0.04111525326991572;0.7603448275862053;-0.05826397146254694;-0.08521105826397328;-0.3459423305588591;-0.028549346016645702;0.21528537455410302;-0.3645868014268724;0.07472354340071541;0.21237217598097607;0.5586206896551719;-0.04280618311534083;-0.06260404280618455;-0.2541617122473253;-0.020975029726515146;0.15816884661117794;-0.26785969084423294;0.05489892984542373;0.15602853745541123;6.246771423200688;-0.478679802544111;-0.700069211220764;-2.842161327605676;-0.23455310324661727;1.7687218704005;-2.995338864419794;0.6139068467628237;1.7447878802732941;33.932561514511;-2.6001962846370494;-3.802787066281555;-15.438665440031443;-1.2740961794719738;9.607725271733287;-16.270728251115163;3.334751735046935;9.477715457501462;0.0014072973932858308;-0.00024718873875395224;-7.719492329063002e-05;-0.0002200520227596863;0.868014268727705;0.22188720910480716;-0.2192275509754701;-0.12567710397674725;0.3210463733650416;0.06688466111771697;-0.09052274628969041;-0.013096181794160392;0.1262386048355133;-0.061754477851386304;0.011426358978875825;-0.014422406453222939;5.35077288941736;-0.4246645150331246;-0.3220372572334526;-0.9805621614480119;25.911868751486317;-2.056497519959225;-1.5595106193024146;-4.748509898516975;48.184226419809825;-3.824144953953166;-2.8999765900811507;-8.830056924926573;0.005075957193816878;-0.0004028537455409623;-0.00030549742370191774;-0.000930200488836029;0.026218787158145008;-0.002080856123662391;-0.0015779825604439496;-0.004804754591095265;0.01926278240190248;-0.0015287922541193154;-0.0011593341260404547;-0.0035300237812128515;0.2154059111448513;-0.01709570723371825;-0.01296424465223637;-0.039474462883412165;1.1700883280865861;-0.09286415302275176;-0.07042198270891768;-0.21442590888932558;-0.17564783387881022;-0.05485331221312882;-0.15636497573970307;0.2556262230919765;-0.2525621511922882;-0.1447869101978691;-0.4891885325558795;0.09051398337112623;-0.11424719460433742;-0.0793650793650795;-0.060185185185185244;-0.1832561728395062;-0.07936507936507911;-0.060185185185185085;-0.18325617283950615;-0.07936507936507947;-0.06018518518518526;-0.18325617283950627;-0.07936507936506759;-0.060185185185180456;-0.1832561728395039;-0.07936507936508275;-0.0601851851851866;-0.18325617283950688;-0.07936507936508307;-0.06018518518518663;-0.18325617283950685;-0.07936507936507887;-0.06018518518518495;-0.18325617283950613;-0.0793650793650852;-0.06018518518518755;-0.18325617283950732;1.7070191283306937;1.1432555829640765;1.2312391421005309;1.3904109589041098;1.9568746829020804;1.1895738203957384;2.1017791732077447;0.7553927553927552;1.1301383801383802;1.6111111111111112;1.2530864197530864;1.2530864197530864;1.6111111111111116;1.253086419753087;1.2530864197530869;1.6111111111111116;1.2530864197530869;1.2530864197530869;1.6111111111111116;1.2530864197530867;1.2530864197530867;1.6111111111111112;1.2530864197530864;1.2530864197530864;1.6111111111111107;1.2530864197530862;1.253086419753086;1.6111111111111114;1.2530864197530867;1.2530864197530867;1.611111111111111;1.2530864197530867;1.2530864197530867;0.21164855797603593;-0.2134109669865446;3.0268795635410854;0.9871409367422082;3.0268795635410854;0.9871409367422082;2.0373586934037498;1.2288474164917285;6.215293893172278;5.79087091164757;12.22629389317228;11.801870911647582;20.794820169287807;20.37039718776307;2.9612938931722828;2.536870911647579;2.7652938931722884;2.340870911647577;2.7152938931722868;2.29087091164758;1.8852938931722854;1.4608709116475802;11.475593893172281;11.05117091164759;3.0608205611627874;47.85839800690255;23.929199003451274;36.93277988032804;47.85839800690255;5.317599778544728;23.92919900358549;2.954160105982497;0.328240011775833;0.9778538667058654;26.56480315103925;2.9516447945599165;3.174226634130641;47.85839800690255;23.929199003451274;36.93277988032804;47.85839800690255;5.317599778544728;23.92919900358549;2.954160105982497;0.328240011775833;0.9778538667058654;26.56480315103925;2.9516447945599165;3.174226634130641;47.85839800690255;23.929199003451274;36.93277988032804;47.85839800690255;5.317599778544728;23.92919900358549;2.954160105982497;0.328240011775833;0.9778538667058654;26.56480315103925;2.9516447945599165;3.174226634130641;47.85839800690255;23.929199003451274;36.93277988032804;47.85839800690255;5.317599778544728;23.92919900358549;2.954160105982497;0.328240011775833;0.9778538667058654;26.56480315103925;2.9516447945599165;3.174226634130641;47.85839800690255;23.929199003451274;36.93277988032804;47.85839800690255;5.317599778544728;23.92919900358549;2.954160105982497;0.328240011775833;0.9778538667058654;26.56480315103925;2.9516447945599165;3.174226634130641;47.85839800690255;23.929199003451274;36.93277988032804;47.85839800690255;5.317599778544728;23.92919900358549;2.954160105982497;0.328240011775833;0.9778538667058654;26.56480315103925;2.9516447945599165;3.174226634130641;47.85839800690255;23.929199003451274;36.93277988032804;47.85839800690255;5.317599778544728;23.92919900358549;2.954160105982497;0.328240011775833;0.9778538667058654;26.56480315103925;2.9516447945599165;3.174226634130641;47.85839800690255;23.929199003451274;36.93277988032804;47.85839800690255;5.317599778544728;23.92919900358549;2.954160105982497;0.328240011775833;0.9778538667058654;26.56480315103925;2.9516447945599165;3.174226634130641;55.058650025961626;28.0;8.0;28.0;28.0;0.1303544944436541;0.059994657066493845;4.0;3.0;2.0;0.0;0.6969234250586759;0.0;0.0;0.0;0.6969234250586759;0.0;0.0;0.0;0.7814744144215573;0.48864194209635603;0.6380711874576983;0.7814744144215573;0.48864194209635603;0.6380711874576983;7.276020881938894;4.163902460147014;3.4846171252933797;1.9337396407417127;0.8219752754296893;0.686886723926607;0.23570226039551584;0.0;0.8084467646598772;0.5204878075183768;7.276020881938894;4.163902460147014;3.4846171252933797;1.9337396407417127;0.8219752754296893;0.686886723926607;0.23570226039551584;0.0;0.8084467646598772;0.5204878075183768;12.33333333333333;10.678461410373828;14.418278037858745;27.87836853605244;26.254901960784316;26.599999999999998;16.985544910179645;33.15289645924176;0.425287356321839;0.3682228072542699;0.49718200130547396;0.9613230529673256;0.9053414469235971;0.9172413793103448;0.5857084451786084;1.1432033261807504;47.85839800690255;23.929199003451274;36.93277988032804;47.85839800690255;5.317599778544728;23.92919900358549;2.954160105982497;0.328240011775833;0.9778538667058654;26.56480315103925;2.9516447945599165;3.174226634130641;4.0;3.0;2.0;0.0;9.192592592592593;4.148703703703704;1.82537037037037;0.0;2.3356944444444445;2.2688425925925926;74.0;4.5;0.4444444444444444;0.2222222222222222;0.0;4.0;0.4444444444444444;4.0;0.4444444444444444;10.422457169722659;1.1580507966358509;4.163902460147014;0.4626558289052238;10.422457169722659;1.1580507966358509;4.163902460147014;0.4626558289052238;0.2503111022260809;0.027812344691786766;0.2503111022260809;0.027812344691786766;0.4241379310344827;0.7;0.4241379310344827;0.4241379310344827;0.7;-4.0;-0.4444444444444444;0.7142857142857143;0.00028571428571433355;8.0;0.8935711016541907;1.3685517054754786;2.537835735984666;3.2964564256398385;3.7193758224153695;3.7193758224153695;25.91356194797153;39.68799945878888;73.59723634355531;95.59723634355532;107.86189885004572;107.86189885004572;0.18393878085369605;0.28171203363045266;0.522405447557339;0.6785651135618065;0.7656217317741272;0.7656217317741272;0.18587583320595183;0.28467873241398256;0.5279068795899186;0.6857110571376155;0.7736844653074696;0.7736844653074696;3.9644098934733814;3.4894292896520933;2.320145259142906;1.5615245694877333;1.1386051727122024;1.1386051727122024;6.664965218283638;12.369957250781123;16.58390589836197;19.152665456510405;19.57896820846014;19.57896820846014;35.68332320783173;26.142133731356516;22.98280480819776;18.403173431358276;17.013154424419042;17.013154424419042;9.0;1.0;0.0;-2.7006147003950467;137.67000000000004;59.6587879430024;46.95741366754052;11.835812092322787;11.835812092322787;46.95741366754052;11.835812092322787;46.95741366754052;0.0;11.835812092322787;19.26246486877803;0.0;27.694948798762496;0.0;1.82537037037037;4.148703703703704;9.192592592592593;1.4324702914936969;16.49232990879588;1.83248110097732;16.49232990879588;1.83248110097732;9.0;7.0;5.0;5.0;2.0;0.0;0.0;0.0;0.0;45.0;2.1972245773362196;2.302585092994046;2.0794415416798357;1.791759469228055;1.791759469228055;1.0986122886681098;0.0;0.0;0.0;0.0;3.828641396489095;28.365859999999998;20.06414;4.0;0.5;3.468700000000003;43.52700000000001;2.5;0.8888888888888893;0.25;0.32000000000000006;0.1111111111111111;0.0;0.0;0.0;0.0;0.0;0.3125;0.09876543209876548;0.03571428571428571;0.06400000000000002;0.02222222222222222;0.0;0.0;0.0;0.0;0.0;0.5332019400352734;6.0;3.0;1.0;0.5;164.22032596245742;4.0;8.0;3.5553480614894135;4.204692619390966;4.9344739331306915;5.616771097666572;6.343880434126331;7.037905963447182;7.760893195851024;8.460622839927844;9.1801903950253;74.09477854005533;2.833213344056216;3.970291913552122;5.25227342804663;6.586171654854675;7.946971357693591;35.58892169820323;128.15650064;4.419189677241379;104.0;7.0;34.0;33.0;4.972222222222222;2.25