boiling_point;SMILES;IUPAC_name;InChIKey;SpAbs_A;SpMax_A;SpDiam_A;SpAD_A;SpMAD_A;LogEE_A;VE1_A;VE2_A;VE3_A;VR1_A;VR2_A;VR3_A;nAtom;nHeavyAtom;nH;nC;ATS0dv;ATS1dv;ATS2dv;ATS3dv;ATS4dv;ATS5dv;ATS6dv;ATS7dv;ATS8dv;ATS0d;ATS1d;ATS2d;ATS3d;ATS4d;ATS5d;ATS6d;ATS7d;ATS8d;ATS0s;ATS1s;ATS2s;ATS3s;ATS4s;ATS5s;ATS6s;ATS7s;ATS8s;ATS0Z;ATS1Z;ATS2Z;ATS3Z;ATS4Z;ATS5Z;ATS6Z;ATS7Z;ATS8Z;ATS0m;ATS1m;ATS2m;ATS3m;ATS4m;ATS5m;ATS6m;ATS7m;ATS8m;ATS0v;ATS1v;ATS2v;ATS3v;ATS4v;ATS5v;ATS6v;ATS7v;ATS8v;ATS0se;ATS1se;ATS2se;ATS3se;ATS4se;ATS5se;ATS6se;ATS7se;ATS8se;ATS0pe;ATS1pe;ATS2pe;ATS3pe;ATS4pe;ATS5pe;ATS6pe;ATS7pe;ATS8pe;ATS0are;ATS1are;ATS2are;ATS3are;ATS4are;ATS5are;ATS6are;ATS7are;ATS8are;ATS0p;ATS1p;ATS2p;ATS3p;ATS4p;ATS5p;ATS6p;ATS7p;ATS8p;ATS0i;ATS1i;ATS2i;ATS3i;ATS4i;ATS5i;ATS6i;ATS7i;ATS8i;AATS0dv;AATS1dv;AATS2dv;AATS3dv;AATS0d;AATS1d;AATS2d;AATS3d;AATS0s;AATS1s;AATS2s;AATS3s;AATS0Z;AATS1Z;AATS2Z;AATS3Z;AATS0m;AATS1m;AATS2m;AATS3m;AATS0v;AATS1v;AATS2v;AATS3v;AATS0se;AATS1se;AATS2se;AATS3se;AATS0pe;AATS1pe;AATS2pe;AATS3pe;AATS0are;AATS1are;AATS2are;AATS3are;AATS0p;AATS1p;AATS2p;AATS3p;AATS0i;AATS1i;AATS2i;AATS3i;ATSC0c;ATSC1c;ATSC2c;ATSC3c;ATSC4c;ATSC5c;ATSC6c;ATSC7c;ATSC8c;ATSC0dv;ATSC1dv;ATSC2dv;ATSC3dv;ATSC4dv;ATSC5dv;ATSC6dv;ATSC7dv;ATSC8dv;ATSC0d;ATSC1d;ATSC2d;ATSC3d;ATSC4d;ATSC5d;ATSC6d;ATSC7d;ATSC8d;ATSC0s;ATSC1s;ATSC2s;ATSC3s;ATSC4s;ATSC5s;ATSC6s;ATSC7s;ATSC8s;ATSC0Z;ATSC1Z;ATSC2Z;ATSC3Z;ATSC4Z;ATSC5Z;ATSC6Z;ATSC7Z;ATSC8Z;ATSC0m;ATSC1m;ATSC2m;ATSC3m;ATSC4m;ATSC5m;ATSC6m;ATSC7m;ATSC8m;ATSC0v;ATSC1v;ATSC2v;ATSC3v;ATSC4v;ATSC5v;ATSC6v;ATSC7v;ATSC8v;ATSC0se;ATSC1se;ATSC2se;ATSC3se;ATSC4se;ATSC5se;ATSC6se;ATSC7se;ATSC8se;ATSC0pe;ATSC1pe;ATSC2pe;ATSC3pe;ATSC4pe;ATSC5pe;ATSC6pe;ATSC7pe;ATSC8pe;ATSC0are;ATSC1are;ATSC2are;ATSC3are;ATSC4are;ATSC5are;ATSC6are;ATSC7are;ATSC8are;ATSC0p;ATSC1p;ATSC2p;ATSC3p;ATSC4p;ATSC5p;ATSC6p;ATSC7p;ATSC8p;ATSC0i;ATSC1i;ATSC2i;ATSC3i;ATSC4i;ATSC5i;ATSC6i;ATSC7i;ATSC8i;AATSC0c;AATSC1c;AATSC2c;AATSC3c;AATSC0dv;AATSC1dv;AATSC2dv;AATSC3dv;AATSC0d;AATSC1d;AATSC2d;AATSC3d;AATSC0s;AATSC1s;AATSC2s;AATSC3s;AATSC0Z;AATSC1Z;AATSC2Z;AATSC3Z;AATSC0m;AATSC1m;AATSC2m;AATSC3m;AATSC0v;AATSC1v;AATSC2v;AATSC3v;AATSC0se;AATSC1se;AATSC2se;AATSC3se;AATSC0pe;AATSC1pe;AATSC2pe;AATSC3pe;AATSC0are;AATSC1are;AATSC2are;AATSC3are;AATSC0p;AATSC1p;AATSC2p;AATSC3p;AATSC0i;AATSC1i;AATSC2i;AATSC3i;MATS1c;MATS2c;MATS3c;MATS1dv;MATS2dv;MATS3dv;MATS1s;MATS2s;MATS3s;MATS1Z;MATS2Z;MATS3Z;MATS1m;MATS2m;MATS3m;MATS1v;MATS2v;MATS3v;MATS1se;MATS2se;MATS3se;MATS1pe;MATS2pe;MATS3pe;MATS1are;MATS2are;MATS3are;MATS1p;MATS2p;MATS3p;MATS1i;MATS2i;MATS3i;GATS1c;GATS2c;GATS3c;GATS1dv;GATS2dv;GATS3dv;GATS1s;GATS2s;GATS3s;GATS1Z;GATS2Z;GATS3Z;GATS1m;GATS2m;GATS3m;GATS1v;GATS2v;GATS3v;GATS1se;GATS2se;GATS3se;GATS1pe;GATS2pe;GATS3pe;GATS1are;GATS2are;GATS3are;GATS1p;GATS2p;GATS3p;GATS1i;GATS2i;GATS3i;BCUTc-1h;BCUTc-1l;BCUTdv-1h;BCUTdv-1l;BCUTd-1h;BCUTd-1l;BCUTs-1h;BCUTs-1l;BCUTZ-1h;BCUTZ-1l;BCUTm-1h;BCUTm-1l;BCUTv-1h;BCUTv-1l;BCUTse-1h;BCUTse-1l;BCUTpe-1h;BCUTpe-1l;BCUTare-1h;BCUTare-1l;BCUTp-1h;BCUTp-1l;BCUTi-1h;BCUTi-1l;BalabanJ;SpAbs_DzZ;SpMax_DzZ;SpDiam_DzZ;SpAD_DzZ;SpMAD_DzZ;LogEE_DzZ;VE1_DzZ;VE2_DzZ;VE3_DzZ;VR1_DzZ;VR2_DzZ;VR3_DzZ;SpAbs_Dzm;SpMax_Dzm;SpDiam_Dzm;SpAD_Dzm;SpMAD_Dzm;LogEE_Dzm;VE1_Dzm;VE2_Dzm;VE3_Dzm;VR1_Dzm;VR2_Dzm;VR3_Dzm;SpAbs_Dzv;SpMax_Dzv;SpDiam_Dzv;SpAD_Dzv;SpMAD_Dzv;LogEE_Dzv;VE1_Dzv;VE2_Dzv;VE3_Dzv;VR1_Dzv;VR2_Dzv;VR3_Dzv;SpAbs_Dzse;SpMax_Dzse;SpDiam_Dzse;SpAD_Dzse;SpMAD_Dzse;LogEE_Dzse;VE1_Dzse;VE2_Dzse;VE3_Dzse;VR1_Dzse;VR2_Dzse;VR3_Dzse;SpAbs_Dzpe;SpMax_Dzpe;SpDiam_Dzpe;SpAD_Dzpe;SpMAD_Dzpe;LogEE_Dzpe;VE1_Dzpe;VE2_Dzpe;VE3_Dzpe;VR1_Dzpe;VR2_Dzpe;VR3_Dzpe;SpAbs_Dzare;SpMax_Dzare;SpDiam_Dzare;SpAD_Dzare;SpMAD_Dzare;LogEE_Dzare;VE1_Dzare;VE2_Dzare;VE3_Dzare;VR1_Dzare;VR2_Dzare;VR3_Dzare;SpAbs_Dzp;SpMax_Dzp;SpDiam_Dzp;SpAD_Dzp;SpMAD_Dzp;LogEE_Dzp;VE1_Dzp;VE2_Dzp;VE3_Dzp;VR1_Dzp;VR2_Dzp;VR3_Dzp;SpAbs_Dzi;SpMax_Dzi;SpDiam_Dzi;SpAD_Dzi;SpMAD_Dzi;LogEE_Dzi;VE1_Dzi;VE2_Dzi;VE3_Dzi;VR1_Dzi;VR2_Dzi;VR3_Dzi;BertzCT;nBonds;nBondsO;nBondsS;nBondsKS;RNCG;RPCG;C1SP3;C2SP3;C3SP3;C4SP3;Xc-3d;Xc-4d;Xc-5d;Xc-6d;Xc-3dv;Xc-4dv;Xc-5dv;Xc-6dv;Xpc-4d;Xpc-5d;Xpc-6d;Xpc-4dv;Xpc-5dv;Xpc-6dv;Xp-0d;Xp-1d;Xp-2d;Xp-3d;Xp-4d;Xp-5d;Xp-6d;Xp-7d;AXp-0d;AXp-1d;Xp-0dv;Xp-1dv;Xp-2dv;Xp-3dv;Xp-4dv;Xp-5dv;Xp-6dv;Xp-7dv;AXp-0dv;AXp-1dv;SZ;Sm;Sv;Sse;Spe;Sare;Sp;Si;MZ;Mm;Mv;Mse;Mpe;Mare;Mp;Mi;SpAbs_D;SpMax_D;SpDiam_D;SpAD_D;SpMAD_D;LogEE_D;VE1_D;VE2_D;VE3_D;VR1_D;VR2_D;VR3_D;NsCH3;NssCH2;NsssCH;NssssC;SsCH3;SssCH2;SsssCH;SssssC;MAXsCH3;MINsCH3;ECIndex;ETA_alpha;ETA_shape_p;ETA_shape_y;ETA_shape_x;ETA_beta;AETA_beta;ETA_beta_s;AETA_beta_s;ETA_eta;AETA_eta;ETA_eta_L;AETA_eta_L;ETA_eta_R;AETA_eta_R;ETA_eta_RL;AETA_eta_RL;ETA_eta_B;AETA_eta_B;ETA_eta_BR;AETA_eta_BR;ETA_epsilon_1;ETA_epsilon_2;ETA_epsilon_3;ETA_epsilon_4;ETA_epsilon_5;ETA_dBeta;AETA_dBeta;ETA_psi_1;ETA_dPsi_B;fragCpx;IC0;IC1;IC2;IC3;IC4;IC5;TIC0;TIC1;TIC2;TIC3;TIC4;TIC5;SIC0;SIC1;SIC2;SIC3;SIC4;SIC5;BIC0;BIC1;BIC2;BIC3;BIC4;BIC5;CIC0;CIC1;CIC2;CIC3;CIC4;CIC5;MIC0;MIC1;MIC2;MIC3;MIC4;MIC5;ZMIC0;ZMIC1;ZMIC2;ZMIC3;ZMIC4;ZMIC5;Kier1;Lipinski;GhoseFilter;FilterItLogS;VMcGowan;LabuteASA;PEOE_VSA6;PEOE_VSA7;SMR_VSA4;SMR_VSA5;SlogP_VSA4;SlogP_VSA5;EState_VSA3;EState_VSA4;EState_VSA5;EState_VSA7;EState_VSA8;VSA_EState4;VSA_EState5;VSA_EState7;VSA_EState8;MDEC-11;MID;AMID;MID_C;AMID_C;MPC2;MPC3;MPC4;MPC5;MPC6;MPC7;MPC8;MPC9;MPC10;TMPC10;piPC1;piPC2;piPC3;piPC4;piPC5;piPC6;piPC7;piPC8;piPC9;piPC10;TpiPC10;apol;bpol;nRot;RotRatio;SLogP;SMR;GGI1;GGI2;GGI3;GGI4;GGI5;GGI6;GGI7;GGI8;GGI9;GGI10;JGI1;JGI2;JGI3;JGI4;JGI5;JGI6;JGI7;JGI8;JGI9;JGI10;JGT10;Diameter;Radius;TopoShapeIndex;PetitjeanIndex;Vabc;VAdjMat;MWC01;MWC02;MWC03;MWC04;MWC05;MWC06;MWC07;MWC08;MWC09;MWC10;TMWC10;SRW02;SRW04;SRW06;SRW08;SRW10;TSRW10;MW;AMW;WPath;WPol;Zagreb1;Zagreb2;mZagreb1;mZagreb2
93.4;CCC(CC)CC;3-ethylpentane;AORMDLNPRGXHHL-UHFFFAOYSA-N;7.999999999999998;1.9999999999999996;3.999999999999999;7.999999999999998;1.1428571428571426;2.753451386079418;2.449489742783178;0.34992710611188255;0.5392047906752951;16.392304845413268;2.3417578350590382;2.440137064031704;23.0;7.0;16.0;7.0;24.0;24.0;21.0;12.0;3.0;0.0;0.0;0.0;0.0;40.0;48.0;81.0;90.0;72.0;54.0;27.0;0.0;0.0;36.52777777777778;43.33333333333333;64.75;78.0;84.0;72.0;27.0;0.0;0.0;268.0;312.0;372.0;384.0;309.0;144.0;27.0;0.0;0.0;1026.1058709999998;1059.2981339999997;1168.3476059999998;1180.5403739999997;817.3423469999998;254.50588799999997;27.433728000000002;0.0;0.0;3461.9582231401932;4376.8872724242765;5667.785136559589;6040.790069730751;5365.407829413083;3184.273894182825;839.261099635117;0.0;0.0;160.27903600000005;159.12520800000001;296.68783199999996;377.3094;377.238252;369.98208;181.398528;0.0;0.0;122.95750000000004;128.775;231.735;289.81499999999994;289.4475;275.22;130.68;0.0;0.0;121.19000000000003;125.5;227.57999999999998;285.66;285.39000000000004;273.24;130.68;0.0;0.0;26.63610647758399;34.55010896;48.793818298188;54.129173156376005;51.109900301829;36.049862154563996;12.004548430923;0.0;0.0;3846.242925017984;3210.7268999464004;6654.719105940588;8873.730930231577;8857.33019216623;9413.241331705165;4992.776604654722;0.0;0.0;1.0434782608695652;1.0909090909090908;0.5;0.2222222222222222;1.7391304347826086;2.1818181818181817;1.9285714285714286;1.6666666666666667;1.5881642512077294;1.9696969696969695;1.5416666666666667;1.4444444444444444;11.652173913043478;14.181818181818182;8.857142857142858;7.111111111111111;44.61329873913042;48.149915181818166;27.817800142857138;21.861858777777773;150.51992274522578;198.94942147383074;134.9472651561807;111.8664827727917;6.968653739130437;7.232964000000001;7.063995999999999;6.987211111111111;5.3459782608695665;5.853409090909091;5.5175;5.366944444444443;5.26913043478261;5.704545454545454;5.418571428571428;5.29;1.1580915859819125;1.5704594981818183;1.1617575785282857;1.0023920954884444;167.22795326165146;145.94213181574548;158.44569299858543;164.328350559844;0.03299317512849048;-0.006138534554482944;-0.009373469476806895;0.0050086669625734785;-0.015433292557791708;-0.004899473950402982;0.014339516012665804;0.0;0.0;17.7391304347826;4.945179584120981;-5.132325141776938;-10.865784499054817;-10.474480151228732;5.30812854442344;7.349716446124765;0.0;0.0;5.913043478260867;2.6918714555765586;-2.841209829867676;-5.274102079395086;-1.3610586011342152;2.551984877126656;1.275992438563328;0.0;0.0;2.8454106280193248;-1.0912623398445709;-0.8082860743541275;0.9716446124763708;-0.28922495274102084;-1.3979206049149333;1.1923440453686207;0.0;0.0;121.73913043478264;-12.098298676748586;-26.654064272211727;1.1342155009451744;-73.86578449905483;-11.909262759924381;62.52362948960304;0.0;0.0;589.5388264347828;-58.58770945935696;-129.07604740264625;5.492597761814835;-357.70542923818516;-57.67227649905517;302.77945162003743;0.0;0.0;1096.2726219649105;-108.94634752446282;-240.0224218898326;10.213720080418483;-665.1685202372495;-107.2440608443938;563.031319433065;0.0;0.0;0.11548660869565203;-0.011476930056709507;-0.02528511153119;0.001075962192816901;-0.07007203780718302;-0.011297603024575942;0.059312415879015534;0.0;0.0;0.5965217391304339;-0.05928166351607157;-0.13060491493383977;0.005557655954630605;-0.3619423440453686;-0.05835538752362565;0.30636578449905827;0.0;0.0;0.43826086956521704;-0.04355387523629764;-0.09595463137996407;0.004083175803402055;-0.2659168241965977;-0.04287334593572489;0.22508506616257376;0.0;0.0;4.900848691438608;-0.4870408637454456;-1.073011902939194;0.04566008097613761;-2.9736127735708626;-0.47943085024943555;2.5170119638094954;0.0;0.0;26.621487874186418;-2.6456137017826453;-5.828617686739674;0.24802628454207776;-16.1527117808049;-2.604275987691999;13.672448935383942;0.0;0.0;0.00143448587515176;-0.0002790242979310429;-0.00022317784468587845;9.275309189950886e-05;0.7712665406427217;0.22478089018731734;-0.12219821766135568;-0.20121823146397808;0.2570888468809073;0.12235779343529812;-0.06764785309208753;-0.09766855702583493;0.1237135055660576;-0.049602833629298675;-0.01924490653224113;0.017993418749562423;5.293005671077506;-0.5499226671249358;-0.634620577909803;0.02100399075824397;25.632122888468817;-2.6630777026980437;-3.07323922387253;0.10171477336694139;47.66402704195263;-4.952106705657401;-5.714819568805538;0.18914296445219414;0.005021156899810958;-0.0005216786389413412;-0.0006020264650283333;1.9925225792905575e-05;0.025935727788279735;-0.002694621068912344;-0.00310964083175809;0.00010291955471538157;0.019054820415879;-0.001979721601649893;-0.002284634080475335;7.561436672966768e-05;0.21308037788863513;-0.022138221079338435;-0.02554790245093319;0.0008455570551136594;1.1574559945298442;-0.12025516826284752;-0.13877661158903987;0.00459307934337181;-0.19451170817664817;-0.15558037102475306;0.06465946685581421;0.2914438502673798;-0.15843837535014016;-0.26089324618736387;-0.40094922055872817;-0.15556027164685904;0.14544425580079232;-0.10389610389610392;-0.11989795918367346;0.003968253968253949;-0.1038961038961033;-0.11989795918367321;0.003968253968254032;-0.10389610389610357;-0.11989795918367334;0.003968253968253992;-0.10389610389609254;-0.11989795918366923;0.003968253968254954;-0.1038961038961102;-0.1198979591836758;0.003968253968253421;-0.10389610389611054;-0.11989795918367592;0.0039682539682533964;-0.1038961038961026;-0.11989795918367299;0.0039682539682541;-0.10389610389610955;-0.11989795918367556;0.003968253968253461;1.733385435621945;1.2226228782222726;0.8861570218151464;1.3529411764705888;1.7717086834733904;1.5846949891067545;2.011035653650254;1.012490904681057;0.6085172608941707;1.6428571428571428;1.290816326530612;1.0039682539682537;1.6428571428571423;1.2908163265306118;1.0039682539682537;1.6428571428571428;1.290816326530612;1.0039682539682537;1.6428571428571432;1.2908163265306123;1.003968253968254;1.6428571428571417;1.2908163265306116;1.0039682539682533;1.6428571428571421;1.2908163265306116;1.0039682539682535;1.6428571428571432;1.2908163265306123;1.003968253968254;1.6428571428571421;1.2908163265306118;1.0039682539682535;0.20492338605419402;-0.208046261315742;3.029410479279582;0.9872569003884845;3.029410479279582;0.9872569003884845;2.0281759147976453;1.22059564570564;6.208352920875067;5.795816181426545;12.219352920875052;11.806816181426553;20.787879196990595;20.375342457542086;2.9543529208750736;2.541816181426548;2.7583529208750726;2.345816181426546;2.7083529208750714;2.2958161814265496;1.8783529208750738;1.465816181426546;11.468652920875067;11.056116181426548;2.9923028831940863;28.593895262807386;14.296947631403697;19.533015608903487;28.593895262807397;4.084842180401057;14.296949321239959;2.59753696161183;0.37107670880169;0.5978887296382134;18.059186037938034;2.579883719705433;2.5369795331528144;28.593895262807386;14.296947631403697;19.533015608903487;28.593895262807397;4.084842180401057;14.296949321239959;2.59753696161183;0.37107670880169;0.5978887296382134;18.059186037938034;2.579883719705433;2.5369795331528144;28.593895262807386;14.296947631403697;19.533015608903487;28.593895262807397;4.084842180401057;14.296949321239959;2.59753696161183;0.37107670880169;0.5978887296382134;18.059186037938034;2.579883719705433;2.5369795331528144;28.593895262807386;14.296947631403697;19.533015608903487;28.593895262807397;4.084842180401057;14.296949321239959;2.59753696161183;0.37107670880169;0.5978887296382134;18.059186037938034;2.579883719705433;2.5369795331528144;28.593895262807386;14.296947631403697;19.533015608903487;28.593895262807397;4.084842180401057;14.296949321239959;2.59753696161183;0.37107670880169;0.5978887296382134;18.059186037938034;2.579883719705433;2.5369795331528144;28.593895262807386;14.296947631403697;19.533015608903487;28.593895262807397;4.084842180401057;14.296949321239959;2.59753696161183;0.37107670880169;0.5978887296382134;18.059186037938034;2.579883719705433;2.5369795331528144;28.593895262807386;14.296947631403697;19.533015608903487;28.593895262807397;4.084842180401057;14.296949321239959;2.59753696161183;0.37107670880169;0.5978887296382134;18.059186037938034;2.579883719705433;2.5369795331528144;28.593895262807386;14.296947631403697;19.533015608903487;28.593895262807397;4.084842180401057;14.296949321239959;2.59753696161183;0.37107670880169;0.5978887296382134;18.059186037938034;2.579883719705433;2.5369795331528144;21.509775004326936;22.0;6.0;22.0;22.0;0.1637918327772356;0.07605606067285973;3.0;3.0;1.0;0.0;0.2041241452319315;0.0;0.0;0.0;0.2041241452319315;0.0;0.0;0.0;0.6123724356957945;0.6123724356957945;0.2041241452319315;0.6123724356957945;0.6123724356957945;0.2041241452319315;5.698670612749268;3.3460652149512318;2.0907702751760278;1.7320508075688772;0.8660254037844386;0.0;0.0;0.0;0.814095801821324;0.5576775358252053;5.698670612749268;3.3460652149512318;2.0907702751760278;1.7320508075688772;0.8660254037844386;0.0;0.0;0.0;0.814095801821324;0.5576775358252053;9.666666666666663;8.34276912829906;11.334622430286997;22.10269482884195;20.803921568627455;21.08;13.38843592814371;26.322317167393408;0.4202898550724636;0.3627290925347418;0.49280967088204336;0.9609867316887805;0.9045183290707589;0.9165217391304347;0.5821059099192918;1.1444485724953655;28.593895262807386;14.296947631403697;19.533015608903487;28.593895262807397;4.084842180401057;14.296949321239959;2.59753696161183;0.37107670880169;0.5978887296382134;18.059186037938034;2.579883719705433;2.5369795331528144;3.0;3.0;1.0;0.0;6.784722222222221;4.0625;0.9861111111111109;0.0;2.261574074074074;2.261574074074074;36.0;3.5;0.42857142857142855;0.14285714285714285;0.0;3.0;0.42857142857142855;3.0;0.42857142857142855;7.1263041811087655;1.0180434544441093;3.3460652149512318;0.47800931642160455;7.1263041811087655;1.0180434544441093;3.3460652149512318;0.47800931642160455;0.06814834742186315;0.009735478203123307;0.06814834742186315;0.009735478203123307;0.42173913043478256;0.7;0.42173913043478256;0.42173913043478256;0.7;-3.0;-0.42857142857142855;0.7142857142857144;0.00028571428571444457;6.0;0.8865408928220899;1.3274847819558417;2.195349998594635;2.195349998594635;2.195349998594635;2.195349998594635;20.39044053490807;30.53214998498436;50.49304996767661;50.49304996767661;50.49304996767661;50.49304996767661;0.19598292262472913;0.2934600641820215;0.4853144535038542;0.4853144535038542;0.4853144535038542;0.4853144535038542;0.1988013201316891;0.29768026409641224;0.4922936791809099;0.4922936791809099;0.4922936791809099;0.4922936791809099;3.637021063234923;3.1960771741011715;2.328211957462378;2.328211957462378;2.328211957462378;2.328211957462378;6.640762870645904;11.936939923031396;12.8117480614033;12.8117480614033;12.8117480614033;12.8117480614033;27.765075162887893;20.806172767965645;22.976862981937092;22.976862981937092;22.976862981937092;22.976862981937092;7.0;1.0;0.0;-2.225392278361068;109.49000000000004;46.92890371420919;40.0336764678499;5.917906046161393;5.917906046161393;40.0336764678499;5.917906046161393;40.0336764678499;0.0;5.917906046161393;19.26246486877803;0.0;20.771211599071872;0.0;0.9861111111111109;4.0625;6.784722222222221;0.75;12.669197399922218;1.8098853428460313;12.669197399922218;1.8098853428460313;6.0;6.0;3.0;0.0;0.0;0.0;0.0;0.0;0.0;28.0;1.9459101490553132;1.9459101490553132;1.9459101490553132;1.3862943611198906;0.0;0.0;0.0;0.0;0.0;0.0;3.367295829986474;22.358688;16.051312;3.0;0.5;2.832600000000001;34.362999999999985;1.5;0.666666666666667;0.375;0.0;0.0;0.0;0.0;0.0;0.0;0.0;0.24999999999999997;0.11111111111111116;0.06249999999999999;0.0;0.0;0.0;0.0;0.0;0.0;0.0;0.42361111111111116;4.0;2.0;1.0;0.5;129.62835551474285;3.584962500721156;6.0;3.2188758248682006;3.8918202981106265;4.574710978503383;5.262690188904886;5.953243334287785;6.645090969505644;7.337587743538596;8.030409562130485;8.723394022000136;66.63782292184975;2.5649493574615367;3.6109179126442243;4.890349128221754;6.248042874508429;7.627057417018934;31.941316689854872;100.12520051199999;4.353269587478261;48.0;6.0;24.0;24.0;3.861111111111111;2.0