boiling_point;SMILES;IUPAC_name;InChIKey;SpAbs_A;SpMax_A;SpDiam_A;SpAD_A;SpMAD_A;LogEE_A;VE1_A;VE2_A;VE3_A;VR1_A;VR2_A;VR3_A;nAtom;nHeavyAtom;nH;nC;ATS0dv;ATS1dv;ATS2dv;ATS3dv;ATS4dv;ATS5dv;ATS6dv;ATS7dv;ATS8dv;ATS0d;ATS1d;ATS2d;ATS3d;ATS4d;ATS5d;ATS6d;ATS7d;ATS8d;ATS0s;ATS1s;ATS2s;ATS3s;ATS4s;ATS5s;ATS6s;ATS7s;ATS8s;ATS0Z;ATS1Z;ATS2Z;ATS3Z;ATS4Z;ATS5Z;ATS6Z;ATS7Z;ATS8Z;ATS0m;ATS1m;ATS2m;ATS3m;ATS4m;ATS5m;ATS6m;ATS7m;ATS8m;ATS0v;ATS1v;ATS2v;ATS3v;ATS4v;ATS5v;ATS6v;ATS7v;ATS8v;ATS0se;ATS1se;ATS2se;ATS3se;ATS4se;ATS5se;ATS6se;ATS7se;ATS8se;ATS0pe;ATS1pe;ATS2pe;ATS3pe;ATS4pe;ATS5pe;ATS6pe;ATS7pe;ATS8pe;ATS0are;ATS1are;ATS2are;ATS3are;ATS4are;ATS5are;ATS6are;ATS7are;ATS8are;ATS0p;ATS1p;ATS2p;ATS3p;ATS4p;ATS5p;ATS6p;ATS7p;ATS8p;ATS0i;ATS1i;ATS2i;ATS3i;ATS4i;ATS5i;ATS6i;ATS7i;ATS8i;AATS0dv;AATS1dv;AATS2dv;AATS3dv;AATS0d;AATS1d;AATS2d;AATS3d;AATS0s;AATS1s;AATS2s;AATS3s;AATS0Z;AATS1Z;AATS2Z;AATS3Z;AATS0m;AATS1m;AATS2m;AATS3m;AATS0v;AATS1v;AATS2v;AATS3v;AATS0se;AATS1se;AATS2se;AATS3se;AATS0pe;AATS1pe;AATS2pe;AATS3pe;AATS0are;AATS1are;AATS2are;AATS3are;AATS0p;AATS1p;AATS2p;AATS3p;AATS0i;AATS1i;AATS2i;AATS3i;ATSC0c;ATSC1c;ATSC2c;ATSC3c;ATSC4c;ATSC5c;ATSC6c;ATSC7c;ATSC8c;ATSC0dv;ATSC1dv;ATSC2dv;ATSC3dv;ATSC4dv;ATSC5dv;ATSC6dv;ATSC7dv;ATSC8dv;ATSC0d;ATSC1d;ATSC2d;ATSC3d;ATSC4d;ATSC5d;ATSC6d;ATSC7d;ATSC8d;ATSC0s;ATSC1s;ATSC2s;ATSC3s;ATSC4s;ATSC5s;ATSC6s;ATSC7s;ATSC8s;ATSC0Z;ATSC1Z;ATSC2Z;ATSC3Z;ATSC4Z;ATSC5Z;ATSC6Z;ATSC7Z;ATSC8Z;ATSC0m;ATSC1m;ATSC2m;ATSC3m;ATSC4m;ATSC5m;ATSC6m;ATSC7m;ATSC8m;ATSC0v;ATSC1v;ATSC2v;ATSC3v;ATSC4v;ATSC5v;ATSC6v;ATSC7v;ATSC8v;ATSC0se;ATSC1se;ATSC2se;ATSC3se;ATSC4se;ATSC5se;ATSC6se;ATSC7se;ATSC8se;ATSC0pe;ATSC1pe;ATSC2pe;ATSC3pe;ATSC4pe;ATSC5pe;ATSC6pe;ATSC7pe;ATSC8pe;ATSC0are;ATSC1are;ATSC2are;ATSC3are;ATSC4are;ATSC5are;ATSC6are;ATSC7are;ATSC8are;ATSC0p;ATSC1p;ATSC2p;ATSC3p;ATSC4p;ATSC5p;ATSC6p;ATSC7p;ATSC8p;ATSC0i;ATSC1i;ATSC2i;ATSC3i;ATSC4i;ATSC5i;ATSC6i;ATSC7i;ATSC8i;AATSC0c;AATSC1c;AATSC2c;AATSC3c;AATSC0dv;AATSC1dv;AATSC2dv;AATSC3dv;AATSC0d;AATSC1d;AATSC2d;AATSC3d;AATSC0s;AATSC1s;AATSC2s;AATSC3s;AATSC0Z;AATSC1Z;AATSC2Z;AATSC3Z;AATSC0m;AATSC1m;AATSC2m;AATSC3m;AATSC0v;AATSC1v;AATSC2v;AATSC3v;AATSC0se;AATSC1se;AATSC2se;AATSC3se;AATSC0pe;AATSC1pe;AATSC2pe;AATSC3pe;AATSC0are;AATSC1are;AATSC2are;AATSC3are;AATSC0p;AATSC1p;AATSC2p;AATSC3p;AATSC0i;AATSC1i;AATSC2i;AATSC3i;MATS1c;MATS2c;MATS3c;MATS1dv;MATS2dv;MATS3dv;MATS1s;MATS2s;MATS3s;MATS1Z;MATS2Z;MATS3Z;MATS1m;MATS2m;MATS3m;MATS1v;MATS2v;MATS3v;MATS1se;MATS2se;MATS3se;MATS1pe;MATS2pe;MATS3pe;MATS1are;MATS2are;MATS3are;MATS1p;MATS2p;MATS3p;MATS1i;MATS2i;MATS3i;GATS1c;GATS2c;GATS3c;GATS1dv;GATS2dv;GATS3dv;GATS1s;GATS2s;GATS3s;GATS1Z;GATS2Z;GATS3Z;GATS1m;GATS2m;GATS3m;GATS1v;GATS2v;GATS3v;GATS1se;GATS2se;GATS3se;GATS1pe;GATS2pe;GATS3pe;GATS1are;GATS2are;GATS3are;GATS1p;GATS2p;GATS3p;GATS1i;GATS2i;GATS3i;BCUTc-1h;BCUTc-1l;BCUTdv-1h;BCUTdv-1l;BCUTd-1h;BCUTd-1l;BCUTs-1h;BCUTs-1l;BCUTZ-1h;BCUTZ-1l;BCUTm-1h;BCUTm-1l;BCUTv-1h;BCUTv-1l;BCUTse-1h;BCUTse-1l;BCUTpe-1h;BCUTpe-1l;BCUTare-1h;BCUTare-1l;BCUTp-1h;BCUTp-1l;BCUTi-1h;BCUTi-1l;BalabanJ;SpAbs_DzZ;SpMax_DzZ;SpDiam_DzZ;SpAD_DzZ;SpMAD_DzZ;LogEE_DzZ;VE1_DzZ;VE2_DzZ;VE3_DzZ;VR1_DzZ;VR2_DzZ;VR3_DzZ;SpAbs_Dzm;SpMax_Dzm;SpDiam_Dzm;SpAD_Dzm;SpMAD_Dzm;LogEE_Dzm;VE1_Dzm;VE2_Dzm;VE3_Dzm;VR1_Dzm;VR2_Dzm;VR3_Dzm;SpAbs_Dzv;SpMax_Dzv;SpDiam_Dzv;SpAD_Dzv;SpMAD_Dzv;LogEE_Dzv;VE1_Dzv;VE2_Dzv;VE3_Dzv;VR1_Dzv;VR2_Dzv;VR3_Dzv;SpAbs_Dzse;SpMax_Dzse;SpDiam_Dzse;SpAD_Dzse;SpMAD_Dzse;LogEE_Dzse;VE1_Dzse;VE2_Dzse;VE3_Dzse;VR1_Dzse;VR2_Dzse;VR3_Dzse;SpAbs_Dzpe;SpMax_Dzpe;SpDiam_Dzpe;SpAD_Dzpe;SpMAD_Dzpe;LogEE_Dzpe;VE1_Dzpe;VE2_Dzpe;VE3_Dzpe;VR1_Dzpe;VR2_Dzpe;VR3_Dzpe;SpAbs_Dzare;SpMax_Dzare;SpDiam_Dzare;SpAD_Dzare;SpMAD_Dzare;LogEE_Dzare;VE1_Dzare;VE2_Dzare;VE3_Dzare;VR1_Dzare;VR2_Dzare;VR3_Dzare;SpAbs_Dzp;SpMax_Dzp;SpDiam_Dzp;SpAD_Dzp;SpMAD_Dzp;LogEE_Dzp;VE1_Dzp;VE2_Dzp;VE3_Dzp;VR1_Dzp;VR2_Dzp;VR3_Dzp;SpAbs_Dzi;SpMax_Dzi;SpDiam_Dzi;SpAD_Dzi;SpMAD_Dzi;LogEE_Dzi;VE1_Dzi;VE2_Dzi;VE3_Dzi;VR1_Dzi;VR2_Dzi;VR3_Dzi;BertzCT;nBonds;nBondsO;nBondsS;nBondsKS;RNCG;RPCG;C1SP3;C2SP3;C3SP3;C4SP3;Xc-3d;Xc-4d;Xc-5d;Xc-6d;Xc-3dv;Xc-4dv;Xc-5dv;Xc-6dv;Xpc-4d;Xpc-5d;Xpc-6d;Xpc-4dv;Xpc-5dv;Xpc-6dv;Xp-0d;Xp-1d;Xp-2d;Xp-3d;Xp-4d;Xp-5d;Xp-6d;Xp-7d;AXp-0d;AXp-1d;Xp-0dv;Xp-1dv;Xp-2dv;Xp-3dv;Xp-4dv;Xp-5dv;Xp-6dv;Xp-7dv;AXp-0dv;AXp-1dv;SZ;Sm;Sv;Sse;Spe;Sare;Sp;Si;MZ;Mm;Mv;Mse;Mpe;Mare;Mp;Mi;SpAbs_D;SpMax_D;SpDiam_D;SpAD_D;SpMAD_D;LogEE_D;VE1_D;VE2_D;VE3_D;VR1_D;VR2_D;VR3_D;NsCH3;NssCH2;NsssCH;NssssC;SsCH3;SssCH2;SsssCH;SssssC;MAXsCH3;MINsCH3;ECIndex;ETA_alpha;ETA_shape_p;ETA_shape_y;ETA_shape_x;ETA_beta;AETA_beta;ETA_beta_s;AETA_beta_s;ETA_eta;AETA_eta;ETA_eta_L;AETA_eta_L;ETA_eta_R;AETA_eta_R;ETA_eta_RL;AETA_eta_RL;ETA_eta_B;AETA_eta_B;ETA_eta_BR;AETA_eta_BR;ETA_epsilon_1;ETA_epsilon_2;ETA_epsilon_3;ETA_epsilon_4;ETA_epsilon_5;ETA_dBeta;AETA_dBeta;ETA_psi_1;ETA_dPsi_B;fragCpx;IC0;IC1;IC2;IC3;IC4;IC5;TIC0;TIC1;TIC2;TIC3;TIC4;TIC5;SIC0;SIC1;SIC2;SIC3;SIC4;SIC5;BIC0;BIC1;BIC2;BIC3;BIC4;BIC5;CIC0;CIC1;CIC2;CIC3;CIC4;CIC5;MIC0;MIC1;MIC2;MIC3;MIC4;MIC5;ZMIC0;ZMIC1;ZMIC2;ZMIC3;ZMIC4;ZMIC5;Kier1;Lipinski;GhoseFilter;FilterItLogS;VMcGowan;LabuteASA;PEOE_VSA6;PEOE_VSA7;SMR_VSA4;SMR_VSA5;SlogP_VSA4;SlogP_VSA5;EState_VSA3;EState_VSA4;EState_VSA5;EState_VSA7;EState_VSA8;VSA_EState4;VSA_EState5;VSA_EState7;VSA_EState8;MDEC-11;MID;AMID;MID_C;AMID_C;MPC2;MPC3;MPC4;MPC5;MPC6;MPC7;MPC8;MPC9;MPC10;TMPC10;piPC1;piPC2;piPC3;piPC4;piPC5;piPC6;piPC7;piPC8;piPC9;piPC10;TpiPC10;apol;bpol;nRot;RotRatio;SLogP;SMR;GGI1;GGI2;GGI3;GGI4;GGI5;GGI6;GGI7;GGI8;GGI9;GGI10;JGI1;JGI2;JGI3;JGI4;JGI5;JGI6;JGI7;JGI8;JGI9;JGI10;JGT10;Diameter;Radius;TopoShapeIndex;PetitjeanIndex;Vabc;VAdjMat;MWC01;MWC02;MWC03;MWC04;MWC05;MWC06;MWC07;MWC08;MWC09;MWC10;TMWC10;SRW02;SRW04;SRW06;SRW08;SRW10;TSRW10;MW;AMW;WPath;WPol;Zagreb1;Zagreb2;mZagreb1;mZagreb2
286.9;CCCCCCCCCCCCCCCC;hexadecane;DCAYPVUWAIABOU-UHFFFAOYSA-N;19.675902894918842;1.9659461993678033;3.931892398735607;19.675902894918842;1.2297439309324276;3.5832620846005803;3.7015289619527496;0.23134556012204685;1.7787495964988913;75.81629444687046;4.738518402929404;4.7983168651096655;50.0;16.0;34.0;16.0;58.0;56.0;52.0;48.0;44.0;40.0;36.0;32.0;28.0;92.0;118.0;192.0;224.0;208.0;192.0;176.0;160.0;144.0;73.5;89.25;148.0;183.75;171.5;159.25;147.0;134.75;122.5;610.0;744.0;896.0;880.0;816.0;752.0;688.0;624.0;560.0;2342.7721120000006;2575.6028069999993;2790.658429999999;2642.6727729999993;2445.916043999999;2249.1593149999994;2052.4025859999992;1855.6458569999995;1658.8891279999996;7833.117738640902;10253.798482837581;13664.581728081375;14149.803115810904;13143.004770855778;12136.206425900653;11129.408080945526;10122.609735990402;9115.811391035277;349.07603199999994;355.10722799999996;681.229688;940.8310600000001;877.9461600000001;815.06126;752.17636;689.2914599999999;626.40656;268.59999999999997;288.27750000000003;535.655;719.6724999999999;671.3699999999999;623.0674999999999;574.7650000000001;526.4625000000001;478.16;264.55999999999995;280.75;525.3000000000001;710.01;662.4000000000001;614.7900000000001;567.1800000000001;519.57;471.96000000000004;59.739238764866016;79.69400654;116.97660531698;129.296495890336;120.27496703094;111.253438171544;102.231909312148;93.210380452752;84.18885159335599;8315.909866264466;7108.0819635886;14967.071983944781;22364.16412607014;20885.20897103154;19406.253815992946;17927.29866095435;16448.343505915753;14969.388350877156;1.16;1.1428571428571428;0.5416666666666666;0.35555555555555557;1.84;2.4081632653061225;2.0;1.6592592592592592;1.47;1.8214285714285714;1.5416666666666667;1.3611111111111112;12.2;15.183673469387756;9.333333333333334;6.518518518518518;46.85544224000001;52.56332259183672;29.069358645833322;19.575353874074068;156.66235477281805;209.26119352729756;142.33939300084765;104.81335641341411;6.9815206399999985;7.247086285714285;7.096142583333333;6.9691189629629635;5.371999999999999;5.883214285714287;5.579739583333333;5.330907407407406;5.291199999999999;5.729591836734694;5.471875000000001;5.259333333333333;1.1947847752973204;1.626408296734694;1.2185063053852083;0.9577518214098962;166.31819732528933;145.0628972160939;155.90699983275815;165.66047500792698;0.07202926853441051;-0.004436660402071267;-0.03430170715987542;-0.00011355071454189204;-4.171983540040831e-06;-7.018372846258336e-08;-5.563228214688562e-10;-2.0546114722769238e-12;4.217958122533505e-12;40.0;1.6399999999999968;-17.84;-0.6000000000000001;-0.6399999999999999;-0.6799999999999999;-0.7199999999999999;-0.7599999999999996;-0.7999999999999996;10.080000000000002;1.1615999999999993;-3.9936000000000007;-0.256;-0.2816;-0.30720000000000003;-0.33280000000000004;-0.35840000000000005;-0.3839999999999997;3.8800000000000003;-0.6423999999999987;-1.529599999999999;0.02399999999999977;0.022399999999999788;0.020799999999999833;0.019199999999999835;0.017599999999999852;0.015999999999999882;272.00000000000006;-11.560000000000029;-124.24000000000001;-1.3999999999999995;-1.439999999999999;-1.4799999999999982;-1.5199999999999974;-1.559999999999996;-1.5999999999999974;1317.1981779199996;-55.980922561599925;-601.6496383263999;-6.779696504000011;-6.973402118400006;-7.167107732800009;-7.360813347200011;-7.55451896160001;-7.748224576000009;2449.386258218742;-104.09891597429717;-1118.7931938275615;-12.607135152596406;-12.96733901409916;-13.327542875601907;-13.687746737104668;-14.047950598607407;-14.408154460110161;0.2580300799999997;-0.010966278400002312;-0.11785903360000191;-0.001328095999999826;-0.00136604159999981;-0.001403987199999792;-0.0014419327999997751;-0.0014798783999997603;-0.001517823999999743;1.332799999999997;-0.05664399999999725;-0.6087759999999964;-0.006860000000000175;-0.0070560000000001975;-0.00725200000000022;-0.007448000000000236;-0.007644000000000251;-0.007840000000000267;0.9791999999999988;-0.04161600000000135;-0.44726400000000066;-0.005039999999999892;-0.005183999999999883;-0.005327999999999871;-0.005471999999999861;-0.005615999999999852;-0.005759999999999842;10.949896219157122;-0.46537058931417785;-5.001526125985592;-0.056359759951543964;-0.05797003880730239;-0.059580317663060794;-0.06119059651881917;-0.06280087537457754;-0.064411154230336;59.48001005032505;-2.527900427138662;-27.16836929651599;-0.3061471105531548;-0.3148941708546745;-0.3236412311561939;-0.3323882914577133;-0.3411353517592327;-0.34988241206075255;0.0014405853706882102;-9.054408983818913e-05;-0.0003573094495820356;-8.411164040140151e-07;0.8;0.03346938775510198;-0.18583333333333332;-0.004444444444444445;0.20160000000000003;0.02370612244897958;-0.041600000000000005;-0.0018962962962962963;0.0776;-0.013110204081632628;-0.015933333333333324;0.00017777777777777608;5.440000000000001;-0.23591836734693936;-1.2941666666666667;-0.010370370370370367;26.34396355839999;-1.1424678073795904;-6.267183732566665;-0.05021997410370378;48.987725164374844;-2.1244676729448404;-11.654095769037099;-0.09338618631552893;0.005160601599999994;-0.00022380160000004719;-0.0012276982666666865;-9.837748148146859e-06;0.026655999999999944;-0.001155999999999944;-0.00634141666666663;-5.081481481481611e-05;0.019583999999999976;-0.0008493061224490072;-0.004659000000000007;-3.733333333333253e-05;0.21899792438314244;-0.009497358965595466;-0.05209923047901658;-0.0004174797033447701;1.189600201006501;-0.0515898046354829;-0.2830038468387082;-0.002267756374467813;-0.06285229024291254;-0.24803073587463845;-0.0005838712658953277;0.04183673469387747;-0.23229166666666665;-0.005555555555555557;-0.1689459288870184;-0.2053264604810995;0.00229095074455897;-0.04336734693877561;-0.23789828431372542;-0.0019063180827886702;-0.04336734693877547;-0.2378982843137255;-0.0019063180827886747;-0.04336734693877577;-0.23789828431372564;-0.001906318082788662;-0.0433673469387847;-0.23789828431372959;-0.0019063180827884234;-0.043367346938773504;-0.23789828431372462;-0.0019063180827887237;-0.04336734693877697;-0.23789828431372612;-0.0019063180827886322;-0.043367346938775524;-0.2378982843137255;-0.0019063180827886695;-0.043367346938772894;-0.23789828431372434;-0.0019063180827887404;1.5823651460099355;1.4388351273048732;0.9530728216166797;1.5;1.5184895833333332;1.0072222222222222;1.7396907216494841;1.2497315292096218;0.8419243986254294;1.5624999999999998;1.4543121936274506;0.9674564270152504;1.5625000000000007;1.4543121936274515;0.9674564270152508;1.5625000000000002;1.4543121936274512;0.9674564270152508;1.5625;1.4543121936274508;0.9674564270152506;1.5625000000000004;1.4543121936274512;0.9674564270152507;1.5625000000000002;1.454312193627451;0.9674564270152506;1.5624999999999996;1.4543121936274503;0.9674564270152503;1.5625000000000004;1.4543121936274515;0.9674564270152508;0.2085333171926369;-0.19612162448373732;2.205553858778838;0.9871436102075684;2.205553858778838;0.9871436102075684;2.0257608152506794;1.3050986342276116;6.208695064667938;5.803996006291894;12.219695064667926;11.81499600629188;20.78822134078346;20.38352228240741;2.954695064667937;2.5499960062918867;2.7586950646679327;2.3539960062918897;2.708695064667933;2.3039960062918863;1.878695064667932;1.4739960062918869;11.468995064667956;11.064296006291915;2.828262412638549;177.0767365506361;88.538368275318;140.58180273522674;177.07673655063604;11.067296034414753;88.538368275318;3.9315994452673397;0.24572496532920873;1.8390499558601578;64.2044300196496;4.0127768762281;4.632075840982358;177.0767365506361;88.538368275318;140.58180273522674;177.07673655063604;11.067296034414753;88.538368275318;3.9315994452673397;0.24572496532920873;1.8390499558601578;64.2044300196496;4.0127768762281;4.632075840982358;177.0767365506361;88.538368275318;140.58180273522674;177.07673655063604;11.067296034414753;88.538368275318;3.9315994452673397;0.24572496532920873;1.8390499558601578;64.2044300196496;4.0127768762281;4.632075840982358;177.0767365506361;88.538368275318;140.58180273522674;177.07673655063604;11.067296034414753;88.538368275318;3.9315994452673397;0.24572496532920873;1.8390499558601578;64.2044300196496;4.0127768762281;4.632075840982358;177.0767365506361;88.538368275318;140.58180273522674;177.07673655063604;11.067296034414753;88.538368275318;3.9315994452673397;0.24572496532920873;1.8390499558601578;64.2044300196496;4.0127768762281;4.632075840982358;177.0767365506361;88.538368275318;140.58180273522674;177.07673655063604;11.067296034414753;88.538368275318;3.9315994452673397;0.24572496532920873;1.8390499558601578;64.2044300196496;4.0127768762281;4.632075840982358;177.0767365506361;88.538368275318;140.58180273522674;177.07673655063604;11.067296034414753;88.538368275318;3.9315994452673397;0.24572496532920873;1.8390499558601578;64.2044300196496;4.0127768762281;4.632075840982358;177.0767365506361;88.538368275318;140.58180273522674;177.07673655063604;11.067296034414753;88.538368275318;3.9315994452673397;0.24572496532920873;1.8390499558601578;64.2044300196496;4.0127768762281;4.632075840982358;92.6059378176129;49.0;15.0;49.0;49.0;0.07401844199851154;0.03017345698168072;2.0;14.0;0.0;0.0;0.0;0.0;0.0;0.0;0.0;0.0;0.0;0.0;0.0;0.0;0.0;0.0;0.0;0.0;11.899494936611669;7.914213562373096;5.2426406871192865;3.457106781186548;2.2677669529663693;1.478553390593274;0.9571067811865477;0.614276695296637;0.7437184335382293;0.5276142374915397;11.899494936611669;7.914213562373096;5.2426406871192865;3.457106781186548;2.2677669529663693;1.478553390593274;0.9571067811865477;0.614276695296637;0.7437184335382293;0.5276142374915397;21.666666666666664;18.8533843976355;25.211072664359868;48.09322651128915;45.333333333333336;45.92;29.575426347305395;57.05992398071099;0.4333333333333333;0.37706768795271;0.5042214532871974;0.9618645302257831;0.9066666666666667;0.9184;0.5915085269461079;1.1411984796142198;177.0767365506361;88.538368275318;140.58180273522674;177.07673655063604;11.067296034414753;88.538368275318;3.9315994452673397;0.24572496532920873;1.8390499558601578;64.2044300196496;4.0127768762281;4.632075840982358;2.0;14.0;0.0;0.0;4.580440283444987;20.419559716555014;0.0;0.0;2.2902201417224934;2.2902201417224934;338.0;8.0;0.125;0.0;0.0;7.5;0.46875;7.5;0.46875;20.426006493728806;1.2766254058580504;7.914213562373096;0.4946383476483185;20.426006493728806;1.2766254058580504;7.914213562373096;0.4946383476483185;-8.881784197001252e-16;-5.551115123125783e-17;-8.881784197001252e-16;-5.551115123125783e-17;0.428;0.7;0.428;0.428;0.7;-7.5;-0.46875;0.7142857142857143;0.00028571428571433355;15.0;0.9043814577244937;1.0783220795483648;1.70115093316285;2.188493070364559;2.6448894517332406;3.0634651896016467;45.21907288622469;53.91610397741824;85.0575466581425;109.42465351822794;132.24447258666203;153.17325948008232;0.16024176153939038;0.19106122539089823;0.3014164209649629;0.3877655625473889;0.4686316168943369;0.5427964651459211;0.16107358756434728;0.19205303737619797;0.3029810943740629;0.3897784802999792;0.4710643159067883;0.5456141589956732;4.739474732050231;4.565534110226359;3.942705256611874;3.4553631194101655;2.9989667380414837;2.5803910001730777;6.6995683993355035;8.788769208062018;11.239429855672997;13.447197939267559;15.495920457296322;17.34608371361549;63.36307636776333;58.28737500568233;55.354528222952425;50.11718278666754;44.33091559851064;38.47672468211965;16.0;0.0;0.0;-6.328636744352935;236.3;104.2133827437787;103.73897712034541;0.0;0.0;103.73897712034541;0.0;103.73897712034541;0.0;0.0;89.89150272096417;0.0;13.847474399381248;0.0;0.0;20.419559716555014;4.580440283444987;0.06666666666666665;30.82843759672344;1.926777349795215;30.82843759672344;1.926777349795215;14.0;13.0;12.0;11.0;10.0;9.0;8.0;7.0;6.0;121.0;2.772588722239781;2.70805020110221;2.6390573296152584;2.5649493574615367;2.4849066497880004;2.3978952727983707;2.302585092994046;2.1972245773362196;2.0794415416798357;1.9459101490553132;4.804021044733257;49.390961999999995;34.109038;13.0;0.8666666666666667;6.487600000000007;75.98600000000008;0.5;0.22222222222222232;0.125;0.08000000000000002;0.05555555555555555;0.04081632653061225;0.03125;0.02469135802469135;0.020000000000000004;0.01652892561983471;0.03333333333333333;0.01587301587301588;0.009615384615384616;0.006666666666666668;0.00505050505050505;0.004081632653061225;0.003472222222222222;0.0030864197530864187;0.0028571428571428576;0.0027548209366391185;0.08679114396105739;15.0;8.0;0.875;0.4666666666666667;285.29222252945857;4.906890595608519;15.0;4.07753744390572;4.727387818712341;5.389071729816501;6.052089168924417;6.720220155135295;7.388327859577107;8.059276223305648;8.729882284826589;9.402364704231523;91.54615738843512;3.4339872044851463;4.465908118654584;5.6240175061873385;6.840546529288687;8.089789175789319;44.45424853440508;226.26605108799998;4.52532102176;680.0;13.0;58.0;56.0;5.5;4.25