boiling_point;SMILES;IUPAC_name;InChIKey;SpAbs_A;SpMax_A;SpDiam_A;SpAD_A;SpMAD_A;LogEE_A;VE1_A;VE2_A;VE3_A;VR1_A;VR2_A;VR3_A;nAtom;nHeavyAtom;nH;nC;ATS0dv;ATS1dv;ATS2dv;ATS3dv;ATS4dv;ATS5dv;ATS6dv;ATS7dv;ATS8dv;ATS0d;ATS1d;ATS2d;ATS3d;ATS4d;ATS5d;ATS6d;ATS7d;ATS8d;ATS0s;ATS1s;ATS2s;ATS3s;ATS4s;ATS5s;ATS6s;ATS7s;ATS8s;ATS0Z;ATS1Z;ATS2Z;ATS3Z;ATS4Z;ATS5Z;ATS6Z;ATS7Z;ATS8Z;ATS0m;ATS1m;ATS2m;ATS3m;ATS4m;ATS5m;ATS6m;ATS7m;ATS8m;ATS0v;ATS1v;ATS2v;ATS3v;ATS4v;ATS5v;ATS6v;ATS7v;ATS8v;ATS0se;ATS1se;ATS2se;ATS3se;ATS4se;ATS5se;ATS6se;ATS7se;ATS8se;ATS0pe;ATS1pe;ATS2pe;ATS3pe;ATS4pe;ATS5pe;ATS6pe;ATS7pe;ATS8pe;ATS0are;ATS1are;ATS2are;ATS3are;ATS4are;ATS5are;ATS6are;ATS7are;ATS8are;ATS0p;ATS1p;ATS2p;ATS3p;ATS4p;ATS5p;ATS6p;ATS7p;ATS8p;ATS0i;ATS1i;ATS2i;ATS3i;ATS4i;ATS5i;ATS6i;ATS7i;ATS8i;AATS0dv;AATS1dv;AATS2dv;AATS3dv;AATS0d;AATS1d;AATS2d;AATS3d;AATS0s;AATS1s;AATS2s;AATS3s;AATS0Z;AATS1Z;AATS2Z;AATS3Z;AATS0m;AATS1m;AATS2m;AATS3m;AATS0v;AATS1v;AATS2v;AATS3v;AATS0se;AATS1se;AATS2se;AATS3se;AATS0pe;AATS1pe;AATS2pe;AATS3pe;AATS0are;AATS1are;AATS2are;AATS3are;AATS0p;AATS1p;AATS2p;AATS3p;AATS0i;AATS1i;AATS2i;AATS3i;ATSC0c;ATSC1c;ATSC2c;ATSC3c;ATSC4c;ATSC5c;ATSC6c;ATSC7c;ATSC8c;ATSC0dv;ATSC1dv;ATSC2dv;ATSC3dv;ATSC4dv;ATSC5dv;ATSC6dv;ATSC7dv;ATSC8dv;ATSC0d;ATSC1d;ATSC2d;ATSC3d;ATSC4d;ATSC5d;ATSC6d;ATSC7d;ATSC8d;ATSC0s;ATSC1s;ATSC2s;ATSC3s;ATSC4s;ATSC5s;ATSC6s;ATSC7s;ATSC8s;ATSC0Z;ATSC1Z;ATSC2Z;ATSC3Z;ATSC4Z;ATSC5Z;ATSC6Z;ATSC7Z;ATSC8Z;ATSC0m;ATSC1m;ATSC2m;ATSC3m;ATSC4m;ATSC5m;ATSC6m;ATSC7m;ATSC8m;ATSC0v;ATSC1v;ATSC2v;ATSC3v;ATSC4v;ATSC5v;ATSC6v;ATSC7v;ATSC8v;ATSC0se;ATSC1se;ATSC2se;ATSC3se;ATSC4se;ATSC5se;ATSC6se;ATSC7se;ATSC8se;ATSC0pe;ATSC1pe;ATSC2pe;ATSC3pe;ATSC4pe;ATSC5pe;ATSC6pe;ATSC7pe;ATSC8pe;ATSC0are;ATSC1are;ATSC2are;ATSC3are;ATSC4are;ATSC5are;ATSC6are;ATSC7are;ATSC8are;ATSC0p;ATSC1p;ATSC2p;ATSC3p;ATSC4p;ATSC5p;ATSC6p;ATSC7p;ATSC8p;ATSC0i;ATSC1i;ATSC2i;ATSC3i;ATSC4i;ATSC5i;ATSC6i;ATSC7i;ATSC8i;AATSC0c;AATSC1c;AATSC2c;AATSC3c;AATSC0dv;AATSC1dv;AATSC2dv;AATSC3dv;AATSC0d;AATSC1d;AATSC2d;AATSC3d;AATSC0s;AATSC1s;AATSC2s;AATSC3s;AATSC0Z;AATSC1Z;AATSC2Z;AATSC3Z;AATSC0m;AATSC1m;AATSC2m;AATSC3m;AATSC0v;AATSC1v;AATSC2v;AATSC3v;AATSC0se;AATSC1se;AATSC2se;AATSC3se;AATSC0pe;AATSC1pe;AATSC2pe;AATSC3pe;AATSC0are;AATSC1are;AATSC2are;AATSC3are;AATSC0p;AATSC1p;AATSC2p;AATSC3p;AATSC0i;AATSC1i;AATSC2i;AATSC3i;MATS1c;MATS2c;MATS3c;MATS1dv;MATS2dv;MATS3dv;MATS1s;MATS2s;MATS3s;MATS1Z;MATS2Z;MATS3Z;MATS1m;MATS2m;MATS3m;MATS1v;MATS2v;MATS3v;MATS1se;MATS2se;MATS3se;MATS1pe;MATS2pe;MATS3pe;MATS1are;MATS2are;MATS3are;MATS1p;MATS2p;MATS3p;MATS1i;MATS2i;MATS3i;GATS1c;GATS2c;GATS3c;GATS1dv;GATS2dv;GATS3dv;GATS1s;GATS2s;GATS3s;GATS1Z;GATS2Z;GATS3Z;GATS1m;GATS2m;GATS3m;GATS1v;GATS2v;GATS3v;GATS1se;GATS2se;GATS3se;GATS1pe;GATS2pe;GATS3pe;GATS1are;GATS2are;GATS3are;GATS1p;GATS2p;GATS3p;GATS1i;GATS2i;GATS3i;BCUTc-1h;BCUTc-1l;BCUTdv-1h;BCUTdv-1l;BCUTd-1h;BCUTd-1l;BCUTs-1h;BCUTs-1l;BCUTZ-1h;BCUTZ-1l;BCUTm-1h;BCUTm-1l;BCUTv-1h;BCUTv-1l;BCUTse-1h;BCUTse-1l;BCUTpe-1h;BCUTpe-1l;BCUTare-1h;BCUTare-1l;BCUTp-1h;BCUTp-1l;BCUTi-1h;BCUTi-1l;BalabanJ;SpAbs_DzZ;SpMax_DzZ;SpDiam_DzZ;SpAD_DzZ;SpMAD_DzZ;LogEE_DzZ;VE1_DzZ;VE2_DzZ;VE3_DzZ;VR1_DzZ;VR2_DzZ;VR3_DzZ;SpAbs_Dzm;SpMax_Dzm;SpDiam_Dzm;SpAD_Dzm;SpMAD_Dzm;LogEE_Dzm;VE1_Dzm;VE2_Dzm;VE3_Dzm;VR1_Dzm;VR2_Dzm;VR3_Dzm;SpAbs_Dzv;SpMax_Dzv;SpDiam_Dzv;SpAD_Dzv;SpMAD_Dzv;LogEE_Dzv;VE1_Dzv;VE2_Dzv;VE3_Dzv;VR1_Dzv;VR2_Dzv;VR3_Dzv;SpAbs_Dzse;SpMax_Dzse;SpDiam_Dzse;SpAD_Dzse;SpMAD_Dzse;LogEE_Dzse;VE1_Dzse;VE2_Dzse;VE3_Dzse;VR1_Dzse;VR2_Dzse;VR3_Dzse;SpAbs_Dzpe;SpMax_Dzpe;SpDiam_Dzpe;SpAD_Dzpe;SpMAD_Dzpe;LogEE_Dzpe;VE1_Dzpe;VE2_Dzpe;VE3_Dzpe;VR1_Dzpe;VR2_Dzpe;VR3_Dzpe;SpAbs_Dzare;SpMax_Dzare;SpDiam_Dzare;SpAD_Dzare;SpMAD_Dzare;LogEE_Dzare;VE1_Dzare;VE2_Dzare;VE3_Dzare;VR1_Dzare;VR2_Dzare;VR3_Dzare;SpAbs_Dzp;SpMax_Dzp;SpDiam_Dzp;SpAD_Dzp;SpMAD_Dzp;LogEE_Dzp;VE1_Dzp;VE2_Dzp;VE3_Dzp;VR1_Dzp;VR2_Dzp;VR3_Dzp;SpAbs_Dzi;SpMax_Dzi;SpDiam_Dzi;SpAD_Dzi;SpMAD_Dzi;LogEE_Dzi;VE1_Dzi;VE2_Dzi;VE3_Dzi;VR1_Dzi;VR2_Dzi;VR3_Dzi;BertzCT;nBonds;nBondsO;nBondsS;nBondsKS;RNCG;RPCG;C1SP3;C2SP3;C3SP3;C4SP3;Xc-3d;Xc-4d;Xc-5d;Xc-6d;Xc-3dv;Xc-4dv;Xc-5dv;Xc-6dv;Xpc-4d;Xpc-5d;Xpc-6d;Xpc-4dv;Xpc-5dv;Xpc-6dv;Xp-0d;Xp-1d;Xp-2d;Xp-3d;Xp-4d;Xp-5d;Xp-6d;Xp-7d;AXp-0d;AXp-1d;Xp-0dv;Xp-1dv;Xp-2dv;Xp-3dv;Xp-4dv;Xp-5dv;Xp-6dv;Xp-7dv;AXp-0dv;AXp-1dv;SZ;Sm;Sv;Sse;Spe;Sare;Sp;Si;MZ;Mm;Mv;Mse;Mpe;Mare;Mp;Mi;SpAbs_D;SpMax_D;SpDiam_D;SpAD_D;SpMAD_D;LogEE_D;VE1_D;VE2_D;VE3_D;VR1_D;VR2_D;VR3_D;NsCH3;NssCH2;NsssCH;NssssC;SsCH3;SssCH2;SsssCH;SssssC;MAXsCH3;MINsCH3;ECIndex;ETA_alpha;ETA_shape_p;ETA_shape_y;ETA_shape_x;ETA_beta;AETA_beta;ETA_beta_s;AETA_beta_s;ETA_eta;AETA_eta;ETA_eta_L;AETA_eta_L;ETA_eta_R;AETA_eta_R;ETA_eta_RL;AETA_eta_RL;ETA_eta_B;AETA_eta_B;ETA_eta_BR;AETA_eta_BR;ETA_epsilon_1;ETA_epsilon_2;ETA_epsilon_3;ETA_epsilon_4;ETA_epsilon_5;ETA_dBeta;AETA_dBeta;ETA_psi_1;ETA_dPsi_B;fragCpx;IC0;IC1;IC2;IC3;IC4;IC5;TIC0;TIC1;TIC2;TIC3;TIC4;TIC5;SIC0;SIC1;SIC2;SIC3;SIC4;SIC5;BIC0;BIC1;BIC2;BIC3;BIC4;BIC5;CIC0;CIC1;CIC2;CIC3;CIC4;CIC5;MIC0;MIC1;MIC2;MIC3;MIC4;MIC5;ZMIC0;ZMIC1;ZMIC2;ZMIC3;ZMIC4;ZMIC5;Kier1;Lipinski;GhoseFilter;FilterItLogS;VMcGowan;LabuteASA;PEOE_VSA6;PEOE_VSA7;SMR_VSA4;SMR_VSA5;SlogP_VSA4;SlogP_VSA5;EState_VSA3;EState_VSA4;EState_VSA5;EState_VSA7;EState_VSA8;VSA_EState4;VSA_EState5;VSA_EState7;VSA_EState8;MDEC-11;MID;AMID;MID_C;AMID_C;MPC2;MPC3;MPC4;MPC5;MPC6;MPC7;MPC8;MPC9;MPC10;TMPC10;piPC1;piPC2;piPC3;piPC4;piPC5;piPC6;piPC7;piPC8;piPC9;piPC10;TpiPC10;apol;bpol;nRot;RotRatio;SLogP;SMR;GGI1;GGI2;GGI3;GGI4;GGI5;GGI6;GGI7;GGI8;GGI9;GGI10;JGI1;JGI2;JGI3;JGI4;JGI5;JGI6;JGI7;JGI8;JGI9;JGI10;JGT10;Diameter;Radius;TopoShapeIndex;PetitjeanIndex;Vabc;VAdjMat;MWC01;MWC02;MWC03;MWC04;MWC05;MWC06;MWC07;MWC08;MWC09;MWC10;TMWC10;SRW02;SRW04;SRW06;SRW08;SRW10;TSRW10;MW;AMW;WPath;WPol;Zagreb1;Zagreb2;mZagreb1;mZagreb2
192.0;CCCCCCCC(C)CC;3-methyldecane;JJRUZTXRDDMYGM-UHFFFAOYSA-N;13.04587945016868;2.0107563043833703;4.021512608766741;13.045879450168679;1.1859890409244254;3.2110636730858655;2.977954285783642;0.270723116889422;1.1865467633048148;44.749145761848084;4.068104160168008;3.8963825352222767;35.0;11.0;24.0;11.0;40.0;39.0;35.0;29.0;24.0;20.0;16.0;11.0;5.0;64.0;79.0;133.0;150.0;137.0;121.0;96.0;79.0;63.0;53.52777777777778;64.25;102.25;128.66666666666666;126.41666666666666;108.16666666666666;86.91666666666666;74.58333333333333;62.99999999999999;420.0;504.0;616.0;615.0;535.0;441.0;368.0;304.0;240.0;1611.2908669999997;1733.2113219999997;1943.1817539999997;1846.5012809999996;1537.8231189999997;1274.5202459999996;1068.6189409999997;871.8622119999998;675.1054829999998;5404.695785584951;6988.847810385744;9321.973583208928;9842.856036112029;8890.683977596054;7381.968401003399;6095.416356169901;5088.618011214776;4081.8196662596506;244.18881200000007;246.228328;467.605864;628.825284;626.382844;561.102936;437.75185999999997;374.86696;311.98206;187.6875;199.66500000000002;366.865;482.9024999999999;478.03749999999997;425.115;333.2525;284.95000000000005;236.64750000000004;184.91;194.5;359.94000000000005;476.01;471.87;420.3;329.13;281.52;233.91000000000003;41.348609716376004;54.614063439999995;79.544578877584;89.208864309111;83.182427308507;70.147310018205;57.12426501516799;48.102736155772;39.081207296376;5832.761565571976;4942.884706009601;10351.527901803984;14784.084637697513;14963.921438188707;13675.736909018206;10532.522885761367;9053.56773072277;7574.612575684176;1.1428571428571428;1.1470588235294117;0.5303030303030303;0.32222222222222224;1.8285714285714285;2.323529411764706;2.015151515151515;1.6666666666666667;1.5293650793650795;1.8897058823529411;1.5492424242424243;1.4296296296296296;12.0;14.823529411764707;9.333333333333334;6.833333333333333;46.03688191428571;50.976803588235285;29.442147787878785;20.516680899999997;154.41987958814147;205.5543473642866;141.24202398801407;109.36506706791144;6.976823200000002;7.242009647058824;7.084937333333333;6.9869476;5.3625;5.8725000000000005;5.558560606060606;5.3655833333333325;5.283142857142857;5.720588235294118;5.453636363636364;5.289;1.1813888490393143;1.6062959835294117;1.2052208920846061;0.9912096034345665;166.65033044491358;145.37896194145887;156.8413318455149;164.2676070855279;0.05003328509502912;-0.005827785437254737;-0.016648661291654775;-0.0037340640596200923;-0.006544772185585118;0.004881604389785427;-1.8095367566377057e-05;0.00029490812023125505;0.0015461319581730106;28.571428571428573;4.387755102040818;-12.020408163265305;-6.755102040816325;-1.4693877551020418;1.8775510204081627;-1.1428571428571435;-2.224489795918368;-4.306122448979593;8.685714285714285;1.9910204081632659;-4.064489795918367;-1.93469387755102;0.15102040816326534;0.09877551020408148;-0.5485714285714287;-1.6008163265306123;-1.6530612244897962;3.5269841269841264;-1.1238321995464848;-0.6770748299319725;0.2639455782312925;-0.7908163265306123;0.3732653061224488;0.022857142857142763;-0.0678231292517008;0.5914965986394558;188.57142857142858;-11.755102040816357;-58.44897959183675;-24.183673469387756;-27.040816326530603;20.020408163265316;-2.2857142857142847;-2.3673469387755075;-2.4489795918367303;913.183610742857;-56.925731578775725;-283.04738757224504;-117.11283319591837;-130.94894851020402;96.95163659510212;-11.068892251428533;-11.464209831836705;-11.859527412244873;1698.1039185129935;-105.85582868652409;-526.3387037468844;-217.77631422488065;-243.50516147507759;180.28570823173652;-20.583077800157525;-21.318187721591727;-22.053297643025928;0.17888639999999978;-0.011151360000000072;-0.05544704000000002;-0.02294159999999999;-0.02565199999999996;0.018992160000000015;-0.002168319999999984;-0.002245759999999982;-0.00232319999999998;0.9239999999999982;-0.05759999999999979;-0.2863999999999993;-0.11849999999999973;-0.13249999999999978;0.09809999999999974;-0.011200000000000009;-0.011600000000000006;-0.01200000000000001;0.678857142857142;-0.042318367346939244;-0.21041632653061243;-0.08706122448979589;-0.09734693877551004;0.07207346938775522;-0.008228571428571335;-0.00852244897959174;-0.00881632653061213;7.591314605718172;-0.4732248065902224;-2.352978899434722;-0.973561451058012;-1.0885813693264694;0.8059609987239742;-0.0920159346147659;-0.09530221799386462;-0.09858850137296349;41.23614142144384;-2.5705646600381487;-12.781418726300418;-5.2884012537241425;-5.913191275261147;4.3779929366273524;-0.4998320172296078;-0.5176831607020931;-0.5355343041745781;0.0014295224312865463;-0.00017140545403690404;-0.00025225244381295114;-4.148960066244547e-05;0.8163265306122449;0.12905162064825934;-0.18212739641311068;-0.07505668934240362;0.24816326530612243;0.05855942376950782;-0.06158317872603586;-0.02149659863945578;0.10077097505668933;-0.03305388822195544;-0.010258709544423827;0.0029327286470143613;5.387755102040817;-0.34573829531812816;-0.8855905998763145;-0.2687074829931973;26.090960306938772;-1.6742862229051685;-4.288596781397652;-1.3012537021768709;48.51725481465696;-3.113406726074238;-7.974828844649764;-2.419736824720896;0.005111039999999994;-0.00032798117647059034;-0.0008401066666666669;-0.00025490666666666653;0.026399999999999948;-0.0016941176470588173;-0.004339393939393929;-0.0013166666666666637;0.019395918367346915;-0.001244657863145272;-0.003188126159554734;-0.0009673469387755099;0.2168947030205192;-0.013918376664418306;-0.03565119544598064;-0.010817349456200134;1.1781754691841098;-0.0756048429422985;-0.19365785948940026;-0.05876001393026825;-0.11990399750680511;-0.1764592414166794;-0.029023399531482356;0.1580882352941177;-0.22310606060606059;-0.09194444444444443;-0.3280100068830412;-0.10180222567711315;0.02910291029102911;-0.06417112299465257;-0.16437098255280078;-0.049873737373737376;-0.06417112299465266;-0.16437098255280086;-0.04987373737373738;-0.0641711229946523;-0.1643709825528007;-0.04987373737373737;-0.0641711229946529;-0.16437098255280097;-0.04987373737373741;-0.0641711229946523;-0.1643709825528007;-0.049873737373737355;-0.06417112299465319;-0.16437098255280108;-0.049873737373737424;-0.06417112299465223;-0.16437098255280064;-0.049873737373737355;-0.06417112299465469;-0.1643709825528017;-0.04987373737373751;1.6470366365105287;1.3137810545404982;1.0141000926824275;1.4349999999999998;1.6948484848484848;1.1635555555555555;1.92956795679568;1.022420423860568;0.847959795979598;1.5909090909090908;1.3659320477502295;1.0517676767676767;1.5909090909090913;1.36593204775023;1.0517676767676771;1.5909090909090913;1.36593204775023;1.051767676767677;1.5909090909090908;1.3659320477502295;1.051767676767677;1.590909090909091;1.3659320477502295;1.0517676767676767;1.590909090909091;1.36593204775023;1.051767676767677;1.5909090909090908;1.3659320477502293;1.0517676767676767;1.5909090909090913;1.3659320477502297;1.051767676767677;0.20904320487769923;-0.20777705705053168;3.0257122944799817;0.9871434774156813;3.0257122944799817;0.9871434774156813;2.027957352010741;1.2333880509225918;6.211454416529351;5.795580712963443;12.222454416529343;11.806580712963452;20.790980692644887;20.37510698907902;2.9574544165293526;2.541580712963455;2.7614544165293524;2.345580712963453;2.711454416529355;2.295580712963454;1.881454416529353;1.4655807129634542;11.471754416529361;11.055880712963457;2.894206463174485;77.8075763538499;38.903788176924934;61.48046949915746;77.80757635384987;7.073416032168169;38.903788176924934;3.263207912032816;0.296655264730256;1.2780209134465295;35.98036327011504;3.270942115465004;3.6782835047214086;77.8075763538499;38.903788176924934;61.48046949915746;77.80757635384987;7.073416032168169;38.903788176924934;3.263207912032816;0.296655264730256;1.2780209134465295;35.98036327011504;3.270942115465004;3.6782835047214086;77.8075763538499;38.903788176924934;61.48046949915746;77.80757635384987;7.073416032168169;38.903788176924934;3.263207912032816;0.296655264730256;1.2780209134465295;35.98036327011504;3.270942115465004;3.6782835047214086;77.8075763538499;38.903788176924934;61.48046949915746;77.80757635384987;7.073416032168169;38.903788176924934;3.263207912032816;0.296655264730256;1.2780209134465295;35.98036327011504;3.270942115465004;3.6782835047214086;77.8075763538499;38.903788176924934;61.48046949915746;77.80757635384987;7.073416032168169;38.903788176924934;3.263207912032816;0.296655264730256;1.2780209134465295;35.98036327011504;3.270942115465004;3.6782835047214086;77.8075763538499;38.903788176924934;61.48046949915746;77.80757635384987;7.073416032168169;38.903788176924934;3.263207912032816;0.296655264730256;1.2780209134465295;35.98036327011504;3.270942115465004;3.6782835047214086;77.8075763538499;38.903788176924934;61.48046949915746;77.80757635384987;7.073416032168169;38.903788176924934;3.263207912032816;0.296655264730256;1.2780209134465295;35.98036327011504;3.270942115465004;3.6782835047214086;77.8075763538499;38.903788176924934;61.48046949915746;77.80757635384987;7.073416032168169;38.903788176924934;3.263207912032816;0.296655264730256;1.2780209134465295;35.98036327011504;3.270942115465004;3.6782835047214086;66.43856189774725;34.0;10.0;34.0;34.0;0.10696068206636856;0.04903625449524524;3.0;7.0;1.0;0.0;0.28867513459481287;0.0;0.0;0.0;0.28867513459481287;0.0;0.0;0.0;0.4927992798267444;0.34846171252933794;0.2463996399133722;0.4927992798267444;0.34846171252933794;0.2463996399133722;8.52709773749546;5.308060412490447;3.7163087029543105;2.4974002407106255;1.3004768156519497;0.7945759751233813;0.473461712529338;0.26753738725409254;0.7751907034086781;0.5308060412490447;8.52709773749546;5.308060412490447;3.7163087029543105;2.4974002407106255;1.3004768156519497;0.7945759751233813;0.473461712529338;0.26753738725409254;0.7751907034086781;0.5308060412490447;14.999999999999998;13.014153692448593;17.501933645430487;33.654042243262936;31.705882352941178;32.120000000000005;20.582653892215575;39.98347575109011;0.42857142857142855;0.3718329626413884;0.5000552470122996;0.9615440640932267;0.9058823529411765;0.9177142857142858;0.5880758254918735;1.1423850214597175;77.8075763538499;38.903788176924934;61.48046949915746;77.80757635384987;7.073416032168169;38.903788176924934;3.263207912032816;0.296655264730256;1.2780209134465295;35.98036327011504;3.270942115465004;3.6782835047214086;3.0;7.0;1.0;0.0;6.921823664651046;9.956299918115395;0.9552097505668933;0.0;2.36093324829932;2.272488032249937;137.0;5.5;0.2727272727272727;0.09090909090909091;0.0;5.0;0.45454545454545453;5.0;0.45454545454545453;12.941768896383671;1.1765244451257884;5.308060412490447;0.48255094659004066;12.941768896383671;1.1765244451257884;5.308060412490447;0.48255094659004066;0.10615314988264757;0.009650286352967961;0.10615314988264757;0.009650286352967961;0.42571428571428566;0.7;0.42571428571428566;0.42571428571428566;0.7;-5.0;-0.45454545454545453;0.7142857142857143;0.00028571428571433355;10.0;0.898058793450166;1.287983817691411;2.402370605624278;3.3725989182202785;4.036006945330954;4.150292659616668;31.43205777075581;45.079433619199385;84.08297119684974;118.04096213770974;141.26024308658342;145.2602430865834;0.17508466397415823;0.25110406531214224;0.46836382349889233;0.6575185863362673;0.7868559664182512;0.8091369974918267;0.17652390228160394;0.25316820149488595;0.4722138874696627;0.6629235482320298;0.7933241128772609;0.8157882994181548;4.2312242234948005;3.8412991992535552;2.726912411320688;1.756684098724688;1.093276071614012;0.9789903573282981;6.679732529265542;11.363121995427134;15.880607777602753;19.87959432070604;21.17705246917646;21.292252469176454;43.59544950046522;34.80984237770156;30.46411462835948;21.600826688953816;17.90281328635068;17.41612002533469;11.0;1.0;0.0;-3.9091762724663903;165.85000000000005;72.38867217179562;65.71696295955394;5.917906046161393;5.917906046161393;65.71696295955394;5.917906046161393;65.71696295955394;0.0;5.917906046161393;44.94575136048208;0.0;20.771211599071872;0.0;0.9552097505668933;9.956299918115395;6.921823664651046;0.5000000000000001;20.655554383314055;1.8777776712103686;20.655554383314055;1.8777776712103686;10.0;9.0;7.0;6.0;5.0;4.0;3.0;1.0;0.0;66.0;2.3978952727983707;2.3978952727983707;2.302585092994046;2.0794415416798357;1.9459101490553132;1.791759469228055;1.6094379124341003;1.3862943611198906;0.6931471805599453;0.0;4.204692619390966;34.373031999999995;24.076968;7.0;0.7;4.393000000000004;52.83100000000004;1.5;0.666666666666667;0.25;0.16000000000000003;0.1111111111111111;0.0816326530612245;0.0625;0.02469135802469135;0.0;0.0;0.15;0.06666666666666671;0.027777777777777776;0.02285714285714286;0.018518518518518517;0.0163265306122449;0.015625;0.008230452674897117;0.0;0.0;0.3260020891072479;9.0;5.0;0.8;0.4444444444444444;198.81229641017202;4.321928094887362;10.0;3.713572066704308;4.3694478524670215;5.056245805348308;5.733341276897746;6.428105272684596;7.112327444710911;7.810758116529357;8.498010371999463;9.198369000194964;78.92017720753668;3.044522437723423;4.110873864173311;5.332718793265369;6.618738983517219;7.937731775260109;38.04458585393943;156.187800768;4.462508593371428;206.0;9.0;40.0;39.0;4.861111111111111;2.9166666666666665