boiling_point;SMILES;IUPAC_name;InChIKey;SpAbs_A;SpMax_A;SpDiam_A;SpAD_A;SpMAD_A;LogEE_A;VE1_A;VE2_A;VE3_A;VR1_A;VR2_A;VR3_A;nAtom;nHeavyAtom;nH;nC;ATS0dv;ATS1dv;ATS2dv;ATS3dv;ATS4dv;ATS5dv;ATS6dv;ATS7dv;ATS8dv;ATS0d;ATS1d;ATS2d;ATS3d;ATS4d;ATS5d;ATS6d;ATS7d;ATS8d;ATS0s;ATS1s;ATS2s;ATS3s;ATS4s;ATS5s;ATS6s;ATS7s;ATS8s;ATS0Z;ATS1Z;ATS2Z;ATS3Z;ATS4Z;ATS5Z;ATS6Z;ATS7Z;ATS8Z;ATS0m;ATS1m;ATS2m;ATS3m;ATS4m;ATS5m;ATS6m;ATS7m;ATS8m;ATS0v;ATS1v;ATS2v;ATS3v;ATS4v;ATS5v;ATS6v;ATS7v;ATS8v;ATS0se;ATS1se;ATS2se;ATS3se;ATS4se;ATS5se;ATS6se;ATS7se;ATS8se;ATS0pe;ATS1pe;ATS2pe;ATS3pe;ATS4pe;ATS5pe;ATS6pe;ATS7pe;ATS8pe;ATS0are;ATS1are;ATS2are;ATS3are;ATS4are;ATS5are;ATS6are;ATS7are;ATS8are;ATS0p;ATS1p;ATS2p;ATS3p;ATS4p;ATS5p;ATS6p;ATS7p;ATS8p;ATS0i;ATS1i;ATS2i;ATS3i;ATS4i;ATS5i;ATS6i;ATS7i;ATS8i;AATS0dv;AATS1dv;AATS2dv;AATS3dv;AATS0d;AATS1d;AATS2d;AATS3d;AATS0s;AATS1s;AATS2s;AATS3s;AATS0Z;AATS1Z;AATS2Z;AATS3Z;AATS0m;AATS1m;AATS2m;AATS3m;AATS0v;AATS1v;AATS2v;AATS3v;AATS0se;AATS1se;AATS2se;AATS3se;AATS0pe;AATS1pe;AATS2pe;AATS3pe;AATS0are;AATS1are;AATS2are;AATS3are;AATS0p;AATS1p;AATS2p;AATS3p;AATS0i;AATS1i;AATS2i;AATS3i;ATSC0c;ATSC1c;ATSC2c;ATSC3c;ATSC4c;ATSC5c;ATSC6c;ATSC7c;ATSC8c;ATSC0dv;ATSC1dv;ATSC2dv;ATSC3dv;ATSC4dv;ATSC5dv;ATSC6dv;ATSC7dv;ATSC8dv;ATSC0d;ATSC1d;ATSC2d;ATSC3d;ATSC4d;ATSC5d;ATSC6d;ATSC7d;ATSC8d;ATSC0s;ATSC1s;ATSC2s;ATSC3s;ATSC4s;ATSC5s;ATSC6s;ATSC7s;ATSC8s;ATSC0Z;ATSC1Z;ATSC2Z;ATSC3Z;ATSC4Z;ATSC5Z;ATSC6Z;ATSC7Z;ATSC8Z;ATSC0m;ATSC1m;ATSC2m;ATSC3m;ATSC4m;ATSC5m;ATSC6m;ATSC7m;ATSC8m;ATSC0v;ATSC1v;ATSC2v;ATSC3v;ATSC4v;ATSC5v;ATSC6v;ATSC7v;ATSC8v;ATSC0se;ATSC1se;ATSC2se;ATSC3se;ATSC4se;ATSC5se;ATSC6se;ATSC7se;ATSC8se;ATSC0pe;ATSC1pe;ATSC2pe;ATSC3pe;ATSC4pe;ATSC5pe;ATSC6pe;ATSC7pe;ATSC8pe;ATSC0are;ATSC1are;ATSC2are;ATSC3are;ATSC4are;ATSC5are;ATSC6are;ATSC7are;ATSC8are;ATSC0p;ATSC1p;ATSC2p;ATSC3p;ATSC4p;ATSC5p;ATSC6p;ATSC7p;ATSC8p;ATSC0i;ATSC1i;ATSC2i;ATSC3i;ATSC4i;ATSC5i;ATSC6i;ATSC7i;ATSC8i;AATSC0c;AATSC1c;AATSC2c;AATSC3c;AATSC0dv;AATSC1dv;AATSC2dv;AATSC3dv;AATSC0d;AATSC1d;AATSC2d;AATSC3d;AATSC0s;AATSC1s;AATSC2s;AATSC3s;AATSC0Z;AATSC1Z;AATSC2Z;AATSC3Z;AATSC0m;AATSC1m;AATSC2m;AATSC3m;AATSC0v;AATSC1v;AATSC2v;AATSC3v;AATSC0se;AATSC1se;AATSC2se;AATSC3se;AATSC0pe;AATSC1pe;AATSC2pe;AATSC3pe;AATSC0are;AATSC1are;AATSC2are;AATSC3are;AATSC0p;AATSC1p;AATSC2p;AATSC3p;AATSC0i;AATSC1i;AATSC2i;AATSC3i;MATS1c;MATS2c;MATS3c;MATS1dv;MATS2dv;MATS3dv;MATS1s;MATS2s;MATS3s;MATS1Z;MATS2Z;MATS3Z;MATS1m;MATS2m;MATS3m;MATS1v;MATS2v;MATS3v;MATS1se;MATS2se;MATS3se;MATS1pe;MATS2pe;MATS3pe;MATS1are;MATS2are;MATS3are;MATS1p;MATS2p;MATS3p;MATS1i;MATS2i;MATS3i;GATS1c;GATS2c;GATS3c;GATS1dv;GATS2dv;GATS3dv;GATS1s;GATS2s;GATS3s;GATS1Z;GATS2Z;GATS3Z;GATS1m;GATS2m;GATS3m;GATS1v;GATS2v;GATS3v;GATS1se;GATS2se;GATS3se;GATS1pe;GATS2pe;GATS3pe;GATS1are;GATS2are;GATS3are;GATS1p;GATS2p;GATS3p;GATS1i;GATS2i;GATS3i;BCUTc-1h;BCUTc-1l;BCUTdv-1h;BCUTdv-1l;BCUTd-1h;BCUTd-1l;BCUTs-1h;BCUTs-1l;BCUTZ-1h;BCUTZ-1l;BCUTm-1h;BCUTm-1l;BCUTv-1h;BCUTv-1l;BCUTse-1h;BCUTse-1l;BCUTpe-1h;BCUTpe-1l;BCUTare-1h;BCUTare-1l;BCUTp-1h;BCUTp-1l;BCUTi-1h;BCUTi-1l;BalabanJ;SpAbs_DzZ;SpMax_DzZ;SpDiam_DzZ;SpAD_DzZ;SpMAD_DzZ;LogEE_DzZ;VE1_DzZ;VE2_DzZ;VE3_DzZ;VR1_DzZ;VR2_DzZ;VR3_DzZ;SpAbs_Dzm;SpMax_Dzm;SpDiam_Dzm;SpAD_Dzm;SpMAD_Dzm;LogEE_Dzm;VE1_Dzm;VE2_Dzm;VE3_Dzm;VR1_Dzm;VR2_Dzm;VR3_Dzm;SpAbs_Dzv;SpMax_Dzv;SpDiam_Dzv;SpAD_Dzv;SpMAD_Dzv;LogEE_Dzv;VE1_Dzv;VE2_Dzv;VE3_Dzv;VR1_Dzv;VR2_Dzv;VR3_Dzv;SpAbs_Dzse;SpMax_Dzse;SpDiam_Dzse;SpAD_Dzse;SpMAD_Dzse;LogEE_Dzse;VE1_Dzse;VE2_Dzse;VE3_Dzse;VR1_Dzse;VR2_Dzse;VR3_Dzse;SpAbs_Dzpe;SpMax_Dzpe;SpDiam_Dzpe;SpAD_Dzpe;SpMAD_Dzpe;LogEE_Dzpe;VE1_Dzpe;VE2_Dzpe;VE3_Dzpe;VR1_Dzpe;VR2_Dzpe;VR3_Dzpe;SpAbs_Dzare;SpMax_Dzare;SpDiam_Dzare;SpAD_Dzare;SpMAD_Dzare;LogEE_Dzare;VE1_Dzare;VE2_Dzare;VE3_Dzare;VR1_Dzare;VR2_Dzare;VR3_Dzare;SpAbs_Dzp;SpMax_Dzp;SpDiam_Dzp;SpAD_Dzp;SpMAD_Dzp;LogEE_Dzp;VE1_Dzp;VE2_Dzp;VE3_Dzp;VR1_Dzp;VR2_Dzp;VR3_Dzp;SpAbs_Dzi;SpMax_Dzi;SpDiam_Dzi;SpAD_Dzi;SpMAD_Dzi;LogEE_Dzi;VE1_Dzi;VE2_Dzi;VE3_Dzi;VR1_Dzi;VR2_Dzi;VR3_Dzi;BertzCT;nBonds;nBondsO;nBondsS;nBondsKS;RNCG;RPCG;C1SP3;C2SP3;C3SP3;C4SP3;Xc-3d;Xc-4d;Xc-5d;Xc-6d;Xc-3dv;Xc-4dv;Xc-5dv;Xc-6dv;Xpc-4d;Xpc-5d;Xpc-6d;Xpc-4dv;Xpc-5dv;Xpc-6dv;Xp-0d;Xp-1d;Xp-2d;Xp-3d;Xp-4d;Xp-5d;Xp-6d;Xp-7d;AXp-0d;AXp-1d;Xp-0dv;Xp-1dv;Xp-2dv;Xp-3dv;Xp-4dv;Xp-5dv;Xp-6dv;Xp-7dv;AXp-0dv;AXp-1dv;SZ;Sm;Sv;Sse;Spe;Sare;Sp;Si;MZ;Mm;Mv;Mse;Mpe;Mare;Mp;Mi;SpAbs_D;SpMax_D;SpDiam_D;SpAD_D;SpMAD_D;LogEE_D;VE1_D;VE2_D;VE3_D;VR1_D;VR2_D;VR3_D;NsCH3;NssCH2;NsssCH;NssssC;SsCH3;SssCH2;SsssCH;SssssC;MAXsCH3;MINsCH3;ECIndex;ETA_alpha;ETA_shape_p;ETA_shape_y;ETA_shape_x;ETA_beta;AETA_beta;ETA_beta_s;AETA_beta_s;ETA_eta;AETA_eta;ETA_eta_L;AETA_eta_L;ETA_eta_R;AETA_eta_R;ETA_eta_RL;AETA_eta_RL;ETA_eta_B;AETA_eta_B;ETA_eta_BR;AETA_eta_BR;ETA_epsilon_1;ETA_epsilon_2;ETA_epsilon_3;ETA_epsilon_4;ETA_epsilon_5;ETA_dBeta;AETA_dBeta;ETA_psi_1;ETA_dPsi_B;fragCpx;IC0;IC1;IC2;IC3;IC4;IC5;TIC0;TIC1;TIC2;TIC3;TIC4;TIC5;SIC0;SIC1;SIC2;SIC3;SIC4;SIC5;BIC0;BIC1;BIC2;BIC3;BIC4;BIC5;CIC0;CIC1;CIC2;CIC3;CIC4;CIC5;MIC0;MIC1;MIC2;MIC3;MIC4;MIC5;ZMIC0;ZMIC1;ZMIC2;ZMIC3;ZMIC4;ZMIC5;Kier1;Lipinski;GhoseFilter;FilterItLogS;VMcGowan;LabuteASA;PEOE_VSA6;PEOE_VSA7;SMR_VSA4;SMR_VSA5;SlogP_VSA4;SlogP_VSA5;EState_VSA3;EState_VSA4;EState_VSA5;EState_VSA7;EState_VSA8;VSA_EState4;VSA_EState5;VSA_EState7;VSA_EState8;MDEC-11;MID;AMID;MID_C;AMID_C;MPC2;MPC3;MPC4;MPC5;MPC6;MPC7;MPC8;MPC9;MPC10;TMPC10;piPC1;piPC2;piPC3;piPC4;piPC5;piPC6;piPC7;piPC8;piPC9;piPC10;TpiPC10;apol;bpol;nRot;RotRatio;SLogP;SMR;GGI1;GGI2;GGI3;GGI4;GGI5;GGI6;GGI7;GGI8;GGI9;GGI10;JGI1;JGI2;JGI3;JGI4;JGI5;JGI6;JGI7;JGI8;JGI9;JGI10;JGT10;Diameter;Radius;TopoShapeIndex;PetitjeanIndex;Vabc;VAdjMat;MWC01;MWC02;MWC03;MWC04;MWC05;MWC06;MWC07;MWC08;MWC09;MWC10;TMWC10;SRW02;SRW04;SRW06;SRW08;SRW10;TSRW10;MW;AMW;WPath;WPol;Zagreb1;Zagreb2;mZagreb1;mZagreb2
132.0;CCCC(C)CC(C)C;2,4-dimethylheptane;AUKVIBNBLXQNIZ-UHFFFAOYSA-N;9.507608149965055;2.0608201289092327;4.121640257818465;9.507608149965055;1.0564009055516728;3.0179710420512835;2.7629954503215277;0.3069994944801697;0.9109548836376993;25.88532919301157;2.876147688112397;3.1483158521354175;29.0;9.0;20.0;9.0;34.0;33.0;30.0;24.0;15.0;7.0;2.0;0.0;0.0;54.0;63.0;115.0;117.0;125.0;81.0;75.0;27.0;18.0;46.30555555555556;54.916666666666664;85.02777777777777;110.25;111.66666666666666;98.33333333333333;78.0;39.0;18.0;344.0;408.0;519.0;517.0;466.0;348.0;203.0;87.0;18.0;1318.6983689999995;1396.2547279999997;1676.830689;1519.5339669999996;1395.5862549999997;893.0330669999998;505.78248199999996;160.52601599999997;18.289152;4433.327004362572;5682.86754140501;7720.00677332348;8331.17657783931;7607.095814442622;6147.0787609289855;3914.282420939643;1843.0955629101777;559.5073997567447;202.2339240000001;202.676768;382.170564;505.45049200000005;561.1266519999999;440.09943599999997;430.49568800000003;186.18854399999998;120.932352;155.32250000000002;164.22;299.4225;390.9175;425.2375;337.6275;319.025;139.92000000000002;87.12;153.05;160.0;293.85;384.74999999999994;420.39000000000004;332.91;316.98;138.60000000000002;87.12;33.992358096980006;44.582086200000006;65.175622872735;75.17939502122502;71.153734303054;59.125004876375996;42.064226867903;20.031725292735;8.003032287282;4839.50224529498;4076.8058029780004;8508.590416560735;11635.403701752228;13681.203821706655;10330.818434516375;11088.434025300303;4611.235352918535;3328.5177364364818;1.1724137931034482;1.1785714285714286;0.5555555555555556;0.3333333333333333;1.8620689655172413;2.25;2.1296296296296298;1.625;1.5967432950191571;1.9613095238095237;1.574588477366255;1.53125;11.862068965517242;14.571428571428571;9.61111111111111;7.180555555555555;45.47235755172412;49.86624028571428;31.052420166666664;21.10463843055555;152.8733449780197;202.95955505017895;142.96308839487926;115.71078580332374;6.9735835862068996;7.238456;7.077232666666667;7.020145722222223;5.35594827586207;5.865;5.5448611111111115;5.429409722222222;5.277586206896552;5.714285714285714;5.441666666666667;5.343749999999999;1.172150279206207;1.5922173642857145;1.2069559791247224;1.0441582641836809;166.8793877687924;145.6002072492143;157.56648919556918;161.60282919100317;0.04084552670007554;-0.006919221850618444;-0.0047980610912808945;-0.017686096082950235;0.01639151609860373;-0.024742451411216983;0.01605224988102615;-0.008385066242148673;0.009664367348547583;25.172413793103445;6.2128418549346;-9.838287752675386;-7.048751486325804;-6.6884661117716995;-6.92627824019025;4.625445897740785;1.5980975029726516;5.479191438763378;9.310344827586206;1.8727705112960755;-2.888228299643283;-2.942925089179549;-3.418549346016647;-0.6741973840665868;0.7740784780023788;1.5731272294887046;1.048751486325803;3.6609195402298855;-1.7291253798388166;0.7281344959704059;-2.1495243757431632;2.8005350772889424;-3.0478596908442332;2.084324217201744;-1.3308561236623069;0.8139120095124852;155.17241379310346;-11.890606420927487;-17.39001189060645;-70.60047562425684;44.17360285374556;-99.16765755053508;62.03923900118908;-28.09155766944113;43.34126040428063;751.4441937931032;-57.58193055885831;-84.21357344233036;-341.89271269322217;213.91687202615924;-480.2333008608798;300.4337226908439;-136.03731094530326;209.88613688703907;1397.342566174485;-107.07605871068867;-156.59873586438215;-635.7640985947135;397.787558110208;-893.0143296471424;558.6693363230177;-252.96718870400173;390.2922340004598;0.14720275862068946;-0.011279904875146947;-0.01649686087990356;-0.0669744351961941;0.04190484661117638;-0.09407440665873923;0.05885290368608603;-0.026648775267539046;0.04111525326991572;0.7603448275862053;-0.05826397146254694;-0.08521105826397327;-0.34594233055885903;0.21645065398335378;-0.48592152199762134;0.3039922711058286;-0.1376486325802607;0.21237217598097607;0.5586206896551719;-0.04280618311534081;-0.06260404280618459;-0.2541617122473253;0.1590249702734846;-0.35700356718192616;0.2233412604042826;-0.1011296076099875;0.15602853745541123;6.246771423200688;-0.478679802544111;-0.7000692112207644;-2.842161327605676;1.7782954664513824;-3.9921895532179112;2.497511869773912;-1.1308810335104704;1.7447878802732941;33.932561514511;-2.600196284637049;-3.802787066281554;-15.438665440031443;9.659729197426014;-21.685637013871425;13.566524115093024;-6.142963722454528;9.477715457501462;0.0014084664379336394;-0.00024711506609351587;-8.885298317186842e-05;-0.00024564022337430884;0.868014268727705;0.22188720910480714;-0.18219051393843308;-0.0978993261989695;0.3210463733650416;0.06688466111771699;-0.053485709252653384;-0.04087395957193818;0.1262386048355133;-0.06175447785138631;0.01348397214760011;-0.029854505218655045;5.35077288941736;-0.4246645150331245;-0.3220372572334527;-0.9805621614480118;25.911868751486317;-2.0564975199592253;-1.559510619302414;-4.748509898516975;48.184226419809825;-3.8241449539531667;-2.8999765900811507;-8.830056924926575;0.005075957193816878;-0.00040285374554096235;-0.00030549742370191774;-0.0009302004888360292;0.026218787158145008;-0.002080856123662391;-0.0015779825604439494;-0.004804754591095264;0.01926278240190248;-0.0015287922541193147;-0.0011593341260404553;-0.0035300237812128515;0.2154059111448513;-0.01709570723371825;-0.012964244652236378;-0.039474462883412165;1.1700883280865861;-0.09286415302275175;-0.07042198270891767;-0.21442590888932558;-0.17544973698915986;-0.06308491333469374;-0.1744026103559042;0.25562622309197647;-0.20989345509893456;-0.11278538812785391;-0.4891885325558796;0.10681338062290446;-0.236492673992674;-0.0793650793650795;-0.06018518518518527;-0.18325617283950618;-0.07936507936507912;-0.06018518518518506;-0.18325617283950615;-0.07936507936507949;-0.06018518518518526;-0.18325617283950632;-0.0793650793650676;-0.060185185185180456;-0.18325617283950393;-0.07936507936508275;-0.06018518518518659;-0.18325617283950682;-0.07936507936508302;-0.06018518518518666;-0.18325617283950685;-0.07936507936507887;-0.06018518518518499;-0.18325617283950613;-0.07936507936508519;-0.060185185185187534;-0.18325617283950732;1.707247871477749;1.1498402553433291;1.2348072456408614;1.3904109589041098;1.9156773211567737;1.1586757990867582;2.1017791732077447;0.7396554063220728;1.248168498168498;1.6111111111111112;1.2530864197530864;1.2530864197530864;1.6111111111111116;1.2530864197530869;1.2530864197530869;1.6111111111111116;1.2530864197530869;1.2530864197530869;1.6111111111111116;1.2530864197530867;1.2530864197530867;1.6111111111111112;1.2530864197530869;1.2530864197530864;1.6111111111111107;1.253086419753086;1.253086419753086;1.6111111111111112;1.2530864197530867;1.2530864197530867;1.611111111111111;1.2530864197530867;1.2530864197530867;0.21384497636387653;-0.2163757613437014;3.034661167601956;0.9871405213386015;3.034661167601956;0.9871405213386015;2.0373665324038424;1.2177713393144134;6.2177461170753165;5.7882780062170704;12.228746117075282;11.799278006217058;20.797272393190838;20.36780428233259;2.9637461170753197;2.534278006217069;2.7677461170753164;2.3382780062170707;2.717746117075324;2.2882780062170722;1.8877461170753174;1.458278006217072;11.47804611707532;11.04857800621707;3.1512513888997318;47.08821830992831;23.544109154964154;35.61764690048351;47.08821830992831;5.2320242566587005;23.544109155161646;2.9506040843749806;0.32784489826388674;0.9766494080948941;26.780357124000528;2.975595236000059;3.1823081599905376;47.08821830992831;23.544109154964154;35.61764690048351;47.08821830992831;5.2320242566587005;23.544109155161646;2.9506040843749806;0.32784489826388674;0.9766494080948941;26.780357124000528;2.975595236000059;3.1823081599905376;47.08821830992831;23.544109154964154;35.61764690048351;47.08821830992831;5.2320242566587005;23.544109155161646;2.9506040843749806;0.32784489826388674;0.9766494080948941;26.780357124000528;2.975595236000059;3.1823081599905376;47.08821830992831;23.544109154964154;35.61764690048351;47.08821830992831;5.2320242566587005;23.544109155161646;2.9506040843749806;0.32784489826388674;0.9766494080948941;26.780357124000528;2.975595236000059;3.1823081599905376;47.08821830992831;23.544109154964154;35.61764690048351;47.08821830992831;5.2320242566587005;23.544109155161646;2.9506040843749806;0.32784489826388674;0.9766494080948941;26.780357124000528;2.975595236000059;3.1823081599905376;47.08821830992831;23.544109154964154;35.61764690048351;47.08821830992831;5.2320242566587005;23.544109155161646;2.9506040843749806;0.32784489826388674;0.9766494080948941;26.780357124000528;2.975595236000059;3.1823081599905376;47.08821830992831;23.544109154964154;35.61764690048351;47.08821830992831;5.2320242566587005;23.544109155161646;2.9506040843749806;0.32784489826388674;0.9766494080948941;26.780357124000528;2.975595236000059;3.1823081599905376;47.08821830992831;23.544109154964154;35.61764690048351;47.08821830992831;5.2320242566587005;23.544109155161646;2.9506040843749806;0.32784489826388674;0.9766494080948941;26.780357124000528;2.975595236000059;3.1823081599905376;55.058650025961626;28.0;8.0;28.0;28.0;0.13085257470222286;0.060038423760585914;4.0;3.0;2.0;0.0;0.6969234250586759;0.0;0.0;0.0;0.6969234250586759;0.0;0.0;0.0;0.606493072294114;1.057677535825205;0.6380711874576983;0.606493072294114;1.057677535825205;0.6380711874576983;7.276020881938894;4.163902460147014;3.5233959606302196;1.6552478622747715;1.4153882641488673;0.35355339059327373;0.23570226039551584;0.0;0.8084467646598772;0.5204878075183768;7.276020881938894;4.163902460147014;3.5233959606302196;1.6552478622747715;1.4153882641488673;0.35355339059327373;0.23570226039551584;0.0;0.8084467646598772;0.5204878075183768;12.33333333333333;10.678461410373828;14.418278037858745;27.87836853605244;26.254901960784316;26.599999999999998;16.985544910179645;33.15289645924176;0.425287356321839;0.3682228072542699;0.49718200130547396;0.9613230529673256;0.9053414469235971;0.9172413793103448;0.5857084451786084;1.1432033261807504;47.08821830992831;23.544109154964154;35.61764690048351;47.08821830992831;5.2320242566587005;23.544109155161646;2.9506040843749806;0.32784489826388674;0.9766494080948941;26.780357124000528;2.975595236000059;3.1823081599905376;4.0;3.0;2.0;0.0;9.206990740740741;4.138796296296296;1.8208796296296292;0.0;2.3506944444444446;2.260740740740741;72.0;4.5;0.4444444444444444;0.2222222222222222;0.0;4.0;0.4444444444444444;4.0;0.4444444444444444;10.474750532633372;1.163861170292597;4.163902460147014;0.4626558289052238;10.474750532633372;1.163861170292597;4.163902460147014;0.4626558289052238;0.2503111022260809;0.027812344691786766;0.2503111022260809;0.027812344691786766;0.4241379310344827;0.7;0.4241379310344827;0.4241379310344827;0.7;-4.0;-0.4444444444444444;0.7142857142857143;0.00028571428571433355;8.0;0.8935711016541907;1.3685517054754786;2.6068012532260454;3.4343874601225974;3.7193758224153695;3.7193758224153695;25.91356194797153;39.68799945878888;75.59723634355532;99.59723634355532;107.86189885004572;107.86189885004572;0.18393878085369605;0.28171203363045266;0.5366017808304724;0.7069577801080734;0.7656217317741272;0.7656217317741272;0.18587583320595183;0.28467873241398256;0.5422527139124366;0.7144027257826513;0.7736844653074696;0.7736844653074696;3.9644098934733814;3.4894292896520933;2.2511797419015265;1.4235935350049744;1.1386051727122024;1.1386051727122024;6.664965218283638;12.369957250781123;17.412250725948176;19.291699939269023;19.57896820846014;19.57896820846014;35.68332320783173;26.142133731356516;21.80019198262773;17.890626949943776;17.013154424419042;17.013154424419042;9.0;1.0;0.0;-2.7006147003950467;137.67000000000004;59.6587879430024;40.53659204461451;18.256633715248796;11.835812092322787;46.95741366754052;11.835812092322787;46.95741366754052;0.0;11.835812092322787;19.26246486877803;0.0;27.694948798762496;0.0;1.8208796296296292;4.138796296296296;9.206990740740741;1.4708413767164403;16.49037012099532;1.8322633467772578;16.49037012099532;1.8322633467772578;9.0;7.0;7.0;3.0;2.0;0.0;0.0;0.0;0.0;45.0;2.1972245773362196;2.302585092994046;2.0794415416798357;2.0794415416798357;1.3862943611198906;1.0986122886681098;0.0;0.0;0.0;0.0;3.828641396489095;28.365859999999998;20.06414;4.0;0.5;3.468700000000003;43.52700000000001;2.5;0.666666666666667;0.625;0.16000000000000003;0.1111111111111111;0.0;0.0;0.0;0.0;0.0;0.3125;0.07407407407407411;0.08928571428571427;0.02285714285714286;0.037037037037037035;0.0;0.0;0.0;0.0;0.0;0.5357539682539683;6.0;3.0;1.0;0.5;164.22032596245742;4.0;8.0;3.5553480614894135;4.204692619390966;4.962844630259907;5.631211781821365;6.398594934535208;7.072421900537371;7.841885928984623;8.517393171418904;9.28720881623276;74.47160184467053;2.833213344056216;3.970291913552122;5.25227342804663;6.608000625296087;8.00202481821611;35.665804129167164;128.15650064;4.419189677241379;102.0;7.0;34.0;33.0;4.972222222222222;2.25