boiling_point;SMILES;IUPAC_name;InChIKey;SpAbs_A;SpMax_A;SpDiam_A;SpAD_A;SpMAD_A;LogEE_A;VE1_A;VE2_A;VE3_A;VR1_A;VR2_A;VR3_A;nAtom;nHeavyAtom;nH;nC;ATS0dv;ATS1dv;ATS2dv;ATS3dv;ATS4dv;ATS5dv;ATS6dv;ATS7dv;ATS8dv;ATS0d;ATS1d;ATS2d;ATS3d;ATS4d;ATS5d;ATS6d;ATS7d;ATS8d;ATS0s;ATS1s;ATS2s;ATS3s;ATS4s;ATS5s;ATS6s;ATS7s;ATS8s;ATS0Z;ATS1Z;ATS2Z;ATS3Z;ATS4Z;ATS5Z;ATS6Z;ATS7Z;ATS8Z;ATS0m;ATS1m;ATS2m;ATS3m;ATS4m;ATS5m;ATS6m;ATS7m;ATS8m;ATS0v;ATS1v;ATS2v;ATS3v;ATS4v;ATS5v;ATS6v;ATS7v;ATS8v;ATS0se;ATS1se;ATS2se;ATS3se;ATS4se;ATS5se;ATS6se;ATS7se;ATS8se;ATS0pe;ATS1pe;ATS2pe;ATS3pe;ATS4pe;ATS5pe;ATS6pe;ATS7pe;ATS8pe;ATS0are;ATS1are;ATS2are;ATS3are;ATS4are;ATS5are;ATS6are;ATS7are;ATS8are;ATS0p;ATS1p;ATS2p;ATS3p;ATS4p;ATS5p;ATS6p;ATS7p;ATS8p;ATS0i;ATS1i;ATS2i;ATS3i;ATS4i;ATS5i;ATS6i;ATS7i;ATS8i;AATS0dv;AATS1dv;AATS2dv;AATS3dv;AATS0d;AATS1d;AATS2d;AATS3d;AATS0s;AATS1s;AATS2s;AATS3s;AATS0Z;AATS1Z;AATS2Z;AATS3Z;AATS0m;AATS1m;AATS2m;AATS3m;AATS0v;AATS1v;AATS2v;AATS3v;AATS0se;AATS1se;AATS2se;AATS3se;AATS0pe;AATS1pe;AATS2pe;AATS3pe;AATS0are;AATS1are;AATS2are;AATS3are;AATS0p;AATS1p;AATS2p;AATS3p;AATS0i;AATS1i;AATS2i;AATS3i;ATSC0c;ATSC1c;ATSC2c;ATSC3c;ATSC4c;ATSC5c;ATSC6c;ATSC7c;ATSC8c;ATSC0dv;ATSC1dv;ATSC2dv;ATSC3dv;ATSC4dv;ATSC5dv;ATSC6dv;ATSC7dv;ATSC8dv;ATSC0d;ATSC1d;ATSC2d;ATSC3d;ATSC4d;ATSC5d;ATSC6d;ATSC7d;ATSC8d;ATSC0s;ATSC1s;ATSC2s;ATSC3s;ATSC4s;ATSC5s;ATSC6s;ATSC7s;ATSC8s;ATSC0Z;ATSC1Z;ATSC2Z;ATSC3Z;ATSC4Z;ATSC5Z;ATSC6Z;ATSC7Z;ATSC8Z;ATSC0m;ATSC1m;ATSC2m;ATSC3m;ATSC4m;ATSC5m;ATSC6m;ATSC7m;ATSC8m;ATSC0v;ATSC1v;ATSC2v;ATSC3v;ATSC4v;ATSC5v;ATSC6v;ATSC7v;ATSC8v;ATSC0se;ATSC1se;ATSC2se;ATSC3se;ATSC4se;ATSC5se;ATSC6se;ATSC7se;ATSC8se;ATSC0pe;ATSC1pe;ATSC2pe;ATSC3pe;ATSC4pe;ATSC5pe;ATSC6pe;ATSC7pe;ATSC8pe;ATSC0are;ATSC1are;ATSC2are;ATSC3are;ATSC4are;ATSC5are;ATSC6are;ATSC7are;ATSC8are;ATSC0p;ATSC1p;ATSC2p;ATSC3p;ATSC4p;ATSC5p;ATSC6p;ATSC7p;ATSC8p;ATSC0i;ATSC1i;ATSC2i;ATSC3i;ATSC4i;ATSC5i;ATSC6i;ATSC7i;ATSC8i;AATSC0c;AATSC1c;AATSC2c;AATSC3c;AATSC0dv;AATSC1dv;AATSC2dv;AATSC3dv;AATSC0d;AATSC1d;AATSC2d;AATSC3d;AATSC0s;AATSC1s;AATSC2s;AATSC3s;AATSC0Z;AATSC1Z;AATSC2Z;AATSC3Z;AATSC0m;AATSC1m;AATSC2m;AATSC3m;AATSC0v;AATSC1v;AATSC2v;AATSC3v;AATSC0se;AATSC1se;AATSC2se;AATSC3se;AATSC0pe;AATSC1pe;AATSC2pe;AATSC3pe;AATSC0are;AATSC1are;AATSC2are;AATSC3are;AATSC0p;AATSC1p;AATSC2p;AATSC3p;AATSC0i;AATSC1i;AATSC2i;AATSC3i;MATS1c;MATS2c;MATS3c;MATS1dv;MATS2dv;MATS3dv;MATS1s;MATS2s;MATS3s;MATS1Z;MATS2Z;MATS3Z;MATS1m;MATS2m;MATS3m;MATS1v;MATS2v;MATS3v;MATS1se;MATS2se;MATS3se;MATS1pe;MATS2pe;MATS3pe;MATS1are;MATS2are;MATS3are;MATS1p;MATS2p;MATS3p;MATS1i;MATS2i;MATS3i;GATS1c;GATS2c;GATS3c;GATS1dv;GATS2dv;GATS3dv;GATS1s;GATS2s;GATS3s;GATS1Z;GATS2Z;GATS3Z;GATS1m;GATS2m;GATS3m;GATS1v;GATS2v;GATS3v;GATS1se;GATS2se;GATS3se;GATS1pe;GATS2pe;GATS3pe;GATS1are;GATS2are;GATS3are;GATS1p;GATS2p;GATS3p;GATS1i;GATS2i;GATS3i;BCUTc-1h;BCUTc-1l;BCUTdv-1h;BCUTdv-1l;BCUTd-1h;BCUTd-1l;BCUTs-1h;BCUTs-1l;BCUTZ-1h;BCUTZ-1l;BCUTm-1h;BCUTm-1l;BCUTv-1h;BCUTv-1l;BCUTse-1h;BCUTse-1l;BCUTpe-1h;BCUTpe-1l;BCUTare-1h;BCUTare-1l;BCUTp-1h;BCUTp-1l;BCUTi-1h;BCUTi-1l;BalabanJ;SpAbs_DzZ;SpMax_DzZ;SpDiam_DzZ;SpAD_DzZ;SpMAD_DzZ;LogEE_DzZ;VE1_DzZ;VE2_DzZ;VE3_DzZ;VR1_DzZ;VR2_DzZ;VR3_DzZ;SpAbs_Dzm;SpMax_Dzm;SpDiam_Dzm;SpAD_Dzm;SpMAD_Dzm;LogEE_Dzm;VE1_Dzm;VE2_Dzm;VE3_Dzm;VR1_Dzm;VR2_Dzm;VR3_Dzm;SpAbs_Dzv;SpMax_Dzv;SpDiam_Dzv;SpAD_Dzv;SpMAD_Dzv;LogEE_Dzv;VE1_Dzv;VE2_Dzv;VE3_Dzv;VR1_Dzv;VR2_Dzv;VR3_Dzv;SpAbs_Dzse;SpMax_Dzse;SpDiam_Dzse;SpAD_Dzse;SpMAD_Dzse;LogEE_Dzse;VE1_Dzse;VE2_Dzse;VE3_Dzse;VR1_Dzse;VR2_Dzse;VR3_Dzse;SpAbs_Dzpe;SpMax_Dzpe;SpDiam_Dzpe;SpAD_Dzpe;SpMAD_Dzpe;LogEE_Dzpe;VE1_Dzpe;VE2_Dzpe;VE3_Dzpe;VR1_Dzpe;VR2_Dzpe;VR3_Dzpe;SpAbs_Dzare;SpMax_Dzare;SpDiam_Dzare;SpAD_Dzare;SpMAD_Dzare;LogEE_Dzare;VE1_Dzare;VE2_Dzare;VE3_Dzare;VR1_Dzare;VR2_Dzare;VR3_Dzare;SpAbs_Dzp;SpMax_Dzp;SpDiam_Dzp;SpAD_Dzp;SpMAD_Dzp;LogEE_Dzp;VE1_Dzp;VE2_Dzp;VE3_Dzp;VR1_Dzp;VR2_Dzp;VR3_Dzp;SpAbs_Dzi;SpMax_Dzi;SpDiam_Dzi;SpAD_Dzi;SpMAD_Dzi;LogEE_Dzi;VE1_Dzi;VE2_Dzi;VE3_Dzi;VR1_Dzi;VR2_Dzi;VR3_Dzi;BertzCT;nBonds;nBondsO;nBondsS;nBondsKS;RNCG;RPCG;C1SP3;C2SP3;C3SP3;C4SP3;Xc-3d;Xc-4d;Xc-5d;Xc-6d;Xc-3dv;Xc-4dv;Xc-5dv;Xc-6dv;Xpc-4d;Xpc-5d;Xpc-6d;Xpc-4dv;Xpc-5dv;Xpc-6dv;Xp-0d;Xp-1d;Xp-2d;Xp-3d;Xp-4d;Xp-5d;Xp-6d;Xp-7d;AXp-0d;AXp-1d;Xp-0dv;Xp-1dv;Xp-2dv;Xp-3dv;Xp-4dv;Xp-5dv;Xp-6dv;Xp-7dv;AXp-0dv;AXp-1dv;SZ;Sm;Sv;Sse;Spe;Sare;Sp;Si;MZ;Mm;Mv;Mse;Mpe;Mare;Mp;Mi;SpAbs_D;SpMax_D;SpDiam_D;SpAD_D;SpMAD_D;LogEE_D;VE1_D;VE2_D;VE3_D;VR1_D;VR2_D;VR3_D;NsCH3;NssCH2;NsssCH;NssssC;SsCH3;SssCH2;SsssCH;SssssC;MAXsCH3;MINsCH3;ECIndex;ETA_alpha;ETA_shape_p;ETA_shape_y;ETA_shape_x;ETA_beta;AETA_beta;ETA_beta_s;AETA_beta_s;ETA_eta;AETA_eta;ETA_eta_L;AETA_eta_L;ETA_eta_R;AETA_eta_R;ETA_eta_RL;AETA_eta_RL;ETA_eta_B;AETA_eta_B;ETA_eta_BR;AETA_eta_BR;ETA_epsilon_1;ETA_epsilon_2;ETA_epsilon_3;ETA_epsilon_4;ETA_epsilon_5;ETA_dBeta;AETA_dBeta;ETA_psi_1;ETA_dPsi_B;fragCpx;IC0;IC1;IC2;IC3;IC4;IC5;TIC0;TIC1;TIC2;TIC3;TIC4;TIC5;SIC0;SIC1;SIC2;SIC3;SIC4;SIC5;BIC0;BIC1;BIC2;BIC3;BIC4;BIC5;CIC0;CIC1;CIC2;CIC3;CIC4;CIC5;MIC0;MIC1;MIC2;MIC3;MIC4;MIC5;ZMIC0;ZMIC1;ZMIC2;ZMIC3;ZMIC4;ZMIC5;Kier1;Lipinski;GhoseFilter;FilterItLogS;VMcGowan;LabuteASA;PEOE_VSA6;PEOE_VSA7;SMR_VSA4;SMR_VSA5;SlogP_VSA4;SlogP_VSA5;EState_VSA3;EState_VSA4;EState_VSA5;EState_VSA7;EState_VSA8;VSA_EState4;VSA_EState5;VSA_EState7;VSA_EState8;MDEC-11;MID;AMID;MID_C;AMID_C;MPC2;MPC3;MPC4;MPC5;MPC6;MPC7;MPC8;MPC9;MPC10;TMPC10;piPC1;piPC2;piPC3;piPC4;piPC5;piPC6;piPC7;piPC8;piPC9;piPC10;TpiPC10;apol;bpol;nRot;RotRatio;SLogP;SMR;GGI1;GGI2;GGI3;GGI4;GGI5;GGI6;GGI7;GGI8;GGI9;GGI10;JGI1;JGI2;JGI3;JGI4;JGI5;JGI6;JGI7;JGI8;JGI9;JGI10;JGT10;Diameter;Radius;TopoShapeIndex;PetitjeanIndex;Vabc;VAdjMat;MWC01;MWC02;MWC03;MWC04;MWC05;MWC06;MWC07;MWC08;MWC09;MWC10;TMWC10;SRW02;SRW04;SRW06;SRW08;SRW10;TSRW10;MW;AMW;WPath;WPol;Zagreb1;Zagreb2;mZagreb1;mZagreb2
109.4;CCC(C)CC(C)C;2,4-dimethylhexane;HDGQICNBXPAKLR-UHFFFAOYSA-N;8.565186913861826;2.0420789618979063;4.0841579237958126;8.565186913861828;1.0706483642327285;2.899769180849639;2.639317574447493;0.3299146968059366;0.7473768379010812;19.937684782758268;2.4922105978447835;2.7694680972886334;26.0;8.0;18.0;8.0;30.0;29.0;25.0;18.0;9.0;2.0;0.0;0.0;0.0;48.0;55.0;101.0;101.0;102.0;66.0;45.0;18.0;0.0;42.05555555555556;49.666666666666664;75.69444444444444;98.66666666666666;100.33333333333333;81.0;57.0;18.0;0.0;306.0;360.0;458.0;453.0;377.0;254.0;105.0;18.0;0.0;1172.4021199999997;1227.7764309999998;1483.1221519999997;1322.7772379999997;1077.7635169999999;629.7301939999999;178.81516799999997;18.289152;0.0;3947.6426137513827;5029.877406914644;6806.459661661145;7324.378232884184;6375.170056048273;4638.363184336331;2402.6029626669224;559.5073997567447;0.0;181.25648000000004;180.90098799999998;339.441056;442.56559200000004;498.21803600000004;374.819528;307.120896;120.932352;0.0;139.14000000000001;146.4975;265.64;342.61499999999995;376.8125;284.705;227.04000000000002;87.12;0.0;137.12;142.75;260.76;337.14;372.69;281.34000000000003;225.72000000000003;87.12;0.0;30.314232287281996;39.566097580000005;57.487932727886005;66.15786616182899;61.125781158809;46.089887586074;28.034757580017004;8.003032287282;0.0;4342.872585156481;3643.7663514622;7584.388217594887;10156.44854671363;12196.781753979609;9042.633905345874;7939.753089355017;3328.5177364364813;0.0;1.1538461538461537;1.16;0.5208333333333334;0.2857142857142857;1.8461538461538463;2.2;2.1041666666666665;1.6031746031746033;1.6175213675213675;1.9866666666666666;1.5769675925925926;1.566137566137566;11.76923076923077;14.4;9.541666666666666;7.190476190476191;45.09238923076922;49.111057239999994;30.89837816666666;20.99646409523809;151.83240822120703;201.19509627658576;141.80124295127385;116.2599719505426;6.971403076923078;7.236039519999999;7.071688666666667;7.0248506666666675;5.351538461538462;5.8599;5.534166666666667;5.438333333333333;5.273846153846154;5.71;5.4325;5.351428571428571;1.1659320110493074;1.5826439032000001;1.1976652651642918;1.0501248597115713;167.03356096755698;145.750654058488;158.00808786656015;161.21346899545443;0.0365629983332688;-0.006932304736904919;-0.002372432841250342;-0.016456234110273846;0.008561287221796231;-0.012253039942706512;0.0015027484701250222;0.009668476772579966;0.0;22.461538461538467;6.09467455621302;-9.54437869822485;-8.964497041420119;-5.662721893491127;-4.958579881656806;6.585798816568046;5.218934911242604;0.0;8.615384615384617;1.7928994082840233;-3.5207100591715994;-2.952662721893491;-3.0887573964497035;0.10650887573964607;2.396449704142013;0.9585798816568053;0.0;3.4871794871794877;-1.752629848783694;0.743754109138725;-1.5330374753451672;1.3047337278106501;-0.8836291913214986;-0.4778106508875748;0.8550295857988157;0.0;138.46153846153845;-11.982248520710048;-9.46745562130177;-70.11834319526628;18.49112426035503;-52.95857988165681;14.201183431952655;42.603550295857985;0.0;670.5194344615384;-58.025720289940665;-45.84748269822464;-339.55791873372766;89.54586464497032;-256.4593563431953;68.77122404733709;206.31367214201168;0.0;1246.8595205864642;-107.90130466613648;-85.25535183497212;-631.4224495277607;166.51435905267965;-476.897124326874;127.88302775245802;383.64908325737366;0.0;0.13135015384615373;-0.01136684023668524;-0.008981207100590848;-0.06651706508875668;0.01754142011834261;-0.05023862721893508;0.013471810650886484;0.04041543195266192;0.0;0.6784615384615371;-0.05871301775148015;-0.046390532544379345;-0.3435798816568046;0.09060650887573996;-0.25949704142011765;0.06958579881656884;0.20875739644970437;0.0;0.49846153846153785;-0.04313609467455702;-0.034082840236687006;-0.2524260355029588;0.06656804733727845;-0.19065088757396412;0.05112426035503033;0.15337278106508914;0.0;5.574042193009846;-0.48236903593354497;-0.38113109012033175;-2.8227521362037042;0.7443966603912725;-2.131952035360603;0.5716966351804973;1.7150899055414912;0.0;30.278285659102124;-2.620236258960829;-2.0703101305369502;-15.333234404288932;4.043574473704911;-11.580797292690754;3.1054651958054107;9.316395587416082;0.0;0.0014062691666641845;-0.0002772921894761968;-4.942568419271545e-05;-0.000261210065242442;0.8639053254437872;0.2437869822485208;-0.1988412228796844;-0.14229360383206538;0.33136094674556216;0.07171597633136093;-0.07334812623274166;-0.046867662252277634;0.13412228796844183;-0.07010519395134776;0.015494877273723437;-0.02433392818008202;5.325443786982248;-0.47928994082840193;-0.1972386587771202;-1.112989574528036;25.789209017751475;-2.3210288115976265;-0.9551558895463467;-5.389808233868693;47.9561354071717;-4.316052186645459;-1.7761531632285859;-10.02257856393271;0.005051928994082836;-0.0004546736094674096;-0.00018710848126230934;-0.0010558264299802649;0.026094674556212966;-0.002348520710059206;-0.0009664694280079031;-0.005453648915187374;0.01917159763313607;-0.0017254437869822809;-0.000710059171597646;-0.004006762468300933;0.21438623819268637;-0.0192947614373418;-0.007940231044173579;-0.044805589463550864;1.1645494484270047;-0.10480945035843316;-0.04313146105285313;-0.24338467308395131;-0.19718286943171942;-0.035146674167619185;-0.18574684806754255;0.28219178082191787;-0.23016552511415514;-0.16470971950424002;-0.5226960784313722;0.11552798202614385;-0.1814309056956115;-0.08999999999999991;-0.03703703703703702;-0.208994708994709;-0.08999999999999976;-0.03703703703703687;-0.20899470899470893;-0.09000000000000012;-0.037037037037037125;-0.20899470899470898;-0.08999999999999098;-0.037037037037033496;-0.20899470899470696;-0.09000000000000151;-0.037037037037037625;-0.2089947089947093;-0.0900000000000018;-0.03703703703703776;-0.20899470899470945;-0.09000000000000011;-0.037037037037037084;-0.208994708994709;-0.09000000000000234;-0.037037037037037986;-0.20899470899470948;1.7315864390663587;1.1041684711512254;1.2639416889430473;1.3801369863013695;1.994149543378995;1.2190150032615785;2.1348039215686274;0.7177415236928103;1.2043359010270773;1.625;1.222511574074074;1.2896825396825398;1.6250000000000007;1.2225115740740744;1.2896825396825402;1.6249999999999998;1.2225115740740737;1.2896825396825395;1.625;1.222511574074074;1.2896825396825393;1.6249999999999998;1.222511574074074;1.2896825396825398;1.6250000000000002;1.2225115740740742;1.2896825396825398;1.6250000000000002;1.2225115740740744;1.2896825396825398;1.6250000000000002;1.2225115740740742;1.28968253968254;0.21196800817685088;-0.2160032660266367;3.034625370063301;0.9871333303702104;3.034625370063301;0.9871333303702104;2.037538856430034;1.2193269281388333;6.216277161281095;5.789010616140845;12.227277161281085;11.800010616140847;20.795803437396607;20.36853689225638;2.962277161281089;2.5350106161408426;2.766277161281094;2.339010616140841;2.716277161281091;2.2890106161408412;1.8862771612810918;1.4590106161408414;11.476577161281094;11.049310616140838;3.0988280941131414;36.792882353370416;18.39644117668521;27.756213180469295;36.792882353370416;4.599110294171302;18.396441207147777;2.7837493920213845;0.34796867400267306;0.8006551698724711;22.235490548230054;2.7794363185287567;2.8785461343897993;36.792882353370416;18.39644117668521;27.756213180469295;36.792882353370416;4.599110294171302;18.396441207147777;2.7837493920213845;0.34796867400267306;0.8006551698724711;22.235490548230054;2.7794363185287567;2.8785461343897993;36.792882353370416;18.39644117668521;27.756213180469295;36.792882353370416;4.599110294171302;18.396441207147777;2.7837493920213845;0.34796867400267306;0.8006551698724711;22.235490548230054;2.7794363185287567;2.8785461343897993;36.792882353370416;18.39644117668521;27.756213180469295;36.792882353370416;4.599110294171302;18.396441207147777;2.7837493920213845;0.34796867400267306;0.8006551698724711;22.235490548230054;2.7794363185287567;2.8785461343897993;36.792882353370416;18.39644117668521;27.756213180469295;36.792882353370416;4.599110294171302;18.396441207147777;2.7837493920213845;0.34796867400267306;0.8006551698724711;22.235490548230054;2.7794363185287567;2.8785461343897993;36.792882353370416;18.39644117668521;27.756213180469295;36.792882353370416;4.599110294171302;18.396441207147777;2.7837493920213845;0.34796867400267306;0.8006551698724711;22.235490548230054;2.7794363185287567;2.8785461343897993;36.792882353370416;18.39644117668521;27.756213180469295;36.792882353370416;4.599110294171302;18.396441207147777;2.7837493920213845;0.34796867400267306;0.8006551698724711;22.235490548230054;2.7794363185287567;2.8785461343897993;36.792882353370416;18.39644117668521;27.756213180469295;36.792882353370416;4.599110294171302;18.396441207147777;2.7837493920213845;0.34796867400267306;0.8006551698724711;22.235490548230054;2.7794363185287567;2.8785461343897993;46.0;25.0;7.0;25.0;25.0;0.1459288157797832;0.0671845631318071;4.0;2.0;2.0;0.0;0.6969234250586759;0.0;0.0;0.0;0.6969234250586759;0.0;0.0;0.0;0.6910440616569953;0.9023689270621824;0.6666666666666666;0.6910440616569953;0.9023689270621824;0.6666666666666666;6.568914100752346;3.663902460147014;3.1429691164992697;1.5706968729118902;0.9714045207910318;0.3333333333333333;0.0;0.0;0.8211142625940433;0.5234146371638592;6.568914100752346;3.663902460147014;3.1429691164992697;1.5706968729118902;0.9714045207910318;0.3333333333333333;0.0;0.0;0.8211142625940433;0.5234146371638592;11.0;9.510615269336444;12.87645023407287;24.990531682447198;23.529411764705884;23.84;15.186990419161678;29.737606813317583;0.4230769230769231;0.36579289497447864;0.4952480859258796;0.9611742954787383;0.904977375565611;0.916923076923077;0.584115016121603;1.1437541082045224;36.792882353370416;18.39644117668521;27.756213180469295;36.792882353370416;4.599110294171302;18.396441207147777;2.7837493920213845;0.34796867400267306;0.8006551698724711;22.235490548230054;2.7794363185287567;2.8785461343897993;4.0;2.0;2.0;0.0;9.144212962962964;2.7169444444444446;1.805509259259259;0.0;2.3194444444444446;2.256990740740741;54.0;4.0;0.5;0.25;0.0;3.5;0.4375;3.5;0.4375;8.9638174080787;1.1204771760098375;3.663902460147014;0.45798780751837675;8.9638174080787;1.1204771760098375;3.663902460147014;0.45798780751837675;0.2503111022260809;0.03128888777826011;0.2503111022260809;0.03128888777826011;0.4230769230769231;0.7;0.4230769230769231;0.4230769230769231;0.7;-3.5;-0.4375;0.7142857142857143;0.00028571428571433355;7.0;0.8904916402194913;1.3520301017579528;2.4783459677250406;3.1895084675586194;3.507380102423635;3.507380102423635;23.152782645706775;35.15278264570677;64.43699516085105;82.9272201565241;91.19188266301451;91.19188266301451;0.1894485821789581;0.2876390684343565;0.5272583239733931;0.6785553392481314;0.746181275102219;0.746181275102219;0.19175693730143042;0.29114383531836724;0.5336827555474465;0.6868232643770443;0.7552731951834579;0.7552731951834579;3.8099480779216;3.348409616383139;2.222093750416051;1.5109312505824724;1.193059615717457;1.193059615717457;6.654519640635535;12.198058102173997;16.39946037251864;18.282159371824143;18.60257397976808;18.60257397976808;31.72521615294554;23.41346490856623;20.30332595985392;17.270837203048348;16.510251923482805;16.510251923482805;8.0;1.0;0.0;-2.278202200549686;123.58000000000004;53.29384582860579;34.11577042168851;18.256633715248796;11.835812092322787;40.53659204461451;11.835812092322787;40.53659204461451;0.0;11.835812092322787;12.841643245852019;0.0;27.694948798762496;0.0;1.805509259259259;2.7169444444444446;9.144212962962964;1.6397691447073577;14.496634225424746;1.8120792781780932;14.496634225424746;1.8120792781780932;8.0;6.0;5.0;2.0;0.0;0.0;0.0;0.0;0.0;36.0;2.0794415416798357;2.1972245773362196;1.9459101490553132;1.791759469228055;1.0986122886681098;0.0;0.0;0.0;0.0;0.0;3.6109179126442243;25.362274;18.057726;3.0;0.42857142857142855;3.0786000000000016;38.91;2.5;0.666666666666667;0.5;0.16000000000000003;0.0;0.0;0.0;0.0;0.0;0.0;0.3571428571428571;0.08333333333333337;0.08333333333333333;0.03200000000000001;0.0;0.0;0.0;0.0;0.0;0.0;0.5558095238095239;5.0;3.0;0.6666666666666666;0.4;146.92434073860016;3.807354922057604;7.0;3.4339872044851463;4.07753744390572;4.8283137373023015;5.493061443340548;6.248042874508429;6.918695219020472;7.67368812926773;8.346404870435956;9.100860271357362;71.12059119362365;2.70805020110221;3.8501476017100584;5.14166355650266;6.4967749901858625;7.884199933676039;34.08083628317683;114.14085057599999;4.3900327144615385;71.0;6.0;30.0;29.0;4.722222222222222;2.0