boiling_point;SMILES;IUPAC_name;InChIKey;SpAbs_A;SpMax_A;SpDiam_A;SpAD_A;SpMAD_A;LogEE_A;VE1_A;VE2_A;VE3_A;VR1_A;VR2_A;VR3_A;nAtom;nHeavyAtom;nH;nC;ATS0dv;ATS1dv;ATS2dv;ATS3dv;ATS4dv;ATS5dv;ATS6dv;ATS7dv;ATS8dv;ATS0d;ATS1d;ATS2d;ATS3d;ATS4d;ATS5d;ATS6d;ATS7d;ATS8d;ATS0s;ATS1s;ATS2s;ATS3s;ATS4s;ATS5s;ATS6s;ATS7s;ATS8s;ATS0Z;ATS1Z;ATS2Z;ATS3Z;ATS4Z;ATS5Z;ATS6Z;ATS7Z;ATS8Z;ATS0m;ATS1m;ATS2m;ATS3m;ATS4m;ATS5m;ATS6m;ATS7m;ATS8m;ATS0v;ATS1v;ATS2v;ATS3v;ATS4v;ATS5v;ATS6v;ATS7v;ATS8v;ATS0se;ATS1se;ATS2se;ATS3se;ATS4se;ATS5se;ATS6se;ATS7se;ATS8se;ATS0pe;ATS1pe;ATS2pe;ATS3pe;ATS4pe;ATS5pe;ATS6pe;ATS7pe;ATS8pe;ATS0are;ATS1are;ATS2are;ATS3are;ATS4are;ATS5are;ATS6are;ATS7are;ATS8are;ATS0p;ATS1p;ATS2p;ATS3p;ATS4p;ATS5p;ATS6p;ATS7p;ATS8p;ATS0i;ATS1i;ATS2i;ATS3i;ATS4i;ATS5i;ATS6i;ATS7i;ATS8i;AATS0dv;AATS1dv;AATS2dv;AATS3dv;AATS0d;AATS1d;AATS2d;AATS3d;AATS0s;AATS1s;AATS2s;AATS3s;AATS0Z;AATS1Z;AATS2Z;AATS3Z;AATS0m;AATS1m;AATS2m;AATS3m;AATS0v;AATS1v;AATS2v;AATS3v;AATS0se;AATS1se;AATS2se;AATS3se;AATS0pe;AATS1pe;AATS2pe;AATS3pe;AATS0are;AATS1are;AATS2are;AATS3are;AATS0p;AATS1p;AATS2p;AATS3p;AATS0i;AATS1i;AATS2i;AATS3i;ATSC0c;ATSC1c;ATSC2c;ATSC3c;ATSC4c;ATSC5c;ATSC6c;ATSC7c;ATSC8c;ATSC0dv;ATSC1dv;ATSC2dv;ATSC3dv;ATSC4dv;ATSC5dv;ATSC6dv;ATSC7dv;ATSC8dv;ATSC0d;ATSC1d;ATSC2d;ATSC3d;ATSC4d;ATSC5d;ATSC6d;ATSC7d;ATSC8d;ATSC0s;ATSC1s;ATSC2s;ATSC3s;ATSC4s;ATSC5s;ATSC6s;ATSC7s;ATSC8s;ATSC0Z;ATSC1Z;ATSC2Z;ATSC3Z;ATSC4Z;ATSC5Z;ATSC6Z;ATSC7Z;ATSC8Z;ATSC0m;ATSC1m;ATSC2m;ATSC3m;ATSC4m;ATSC5m;ATSC6m;ATSC7m;ATSC8m;ATSC0v;ATSC1v;ATSC2v;ATSC3v;ATSC4v;ATSC5v;ATSC6v;ATSC7v;ATSC8v;ATSC0se;ATSC1se;ATSC2se;ATSC3se;ATSC4se;ATSC5se;ATSC6se;ATSC7se;ATSC8se;ATSC0pe;ATSC1pe;ATSC2pe;ATSC3pe;ATSC4pe;ATSC5pe;ATSC6pe;ATSC7pe;ATSC8pe;ATSC0are;ATSC1are;ATSC2are;ATSC3are;ATSC4are;ATSC5are;ATSC6are;ATSC7are;ATSC8are;ATSC0p;ATSC1p;ATSC2p;ATSC3p;ATSC4p;ATSC5p;ATSC6p;ATSC7p;ATSC8p;ATSC0i;ATSC1i;ATSC2i;ATSC3i;ATSC4i;ATSC5i;ATSC6i;ATSC7i;ATSC8i;AATSC0c;AATSC1c;AATSC2c;AATSC3c;AATSC0dv;AATSC1dv;AATSC2dv;AATSC3dv;AATSC0d;AATSC1d;AATSC2d;AATSC3d;AATSC0s;AATSC1s;AATSC2s;AATSC3s;AATSC0Z;AATSC1Z;AATSC2Z;AATSC3Z;AATSC0m;AATSC1m;AATSC2m;AATSC3m;AATSC0v;AATSC1v;AATSC2v;AATSC3v;AATSC0se;AATSC1se;AATSC2se;AATSC3se;AATSC0pe;AATSC1pe;AATSC2pe;AATSC3pe;AATSC0are;AATSC1are;AATSC2are;AATSC3are;AATSC0p;AATSC1p;AATSC2p;AATSC3p;AATSC0i;AATSC1i;AATSC2i;AATSC3i;MATS1c;MATS2c;MATS3c;MATS1dv;MATS2dv;MATS3dv;MATS1s;MATS2s;MATS3s;MATS1Z;MATS2Z;MATS3Z;MATS1m;MATS2m;MATS3m;MATS1v;MATS2v;MATS3v;MATS1se;MATS2se;MATS3se;MATS1pe;MATS2pe;MATS3pe;MATS1are;MATS2are;MATS3are;MATS1p;MATS2p;MATS3p;MATS1i;MATS2i;MATS3i;GATS1c;GATS2c;GATS3c;GATS1dv;GATS2dv;GATS3dv;GATS1s;GATS2s;GATS3s;GATS1Z;GATS2Z;GATS3Z;GATS1m;GATS2m;GATS3m;GATS1v;GATS2v;GATS3v;GATS1se;GATS2se;GATS3se;GATS1pe;GATS2pe;GATS3pe;GATS1are;GATS2are;GATS3are;GATS1p;GATS2p;GATS3p;GATS1i;GATS2i;GATS3i;BCUTc-1h;BCUTc-1l;BCUTdv-1h;BCUTdv-1l;BCUTd-1h;BCUTd-1l;BCUTs-1h;BCUTs-1l;BCUTZ-1h;BCUTZ-1l;BCUTm-1h;BCUTm-1l;BCUTv-1h;BCUTv-1l;BCUTse-1h;BCUTse-1l;BCUTpe-1h;BCUTpe-1l;BCUTare-1h;BCUTare-1l;BCUTp-1h;BCUTp-1l;BCUTi-1h;BCUTi-1l;BalabanJ;SpAbs_DzZ;SpMax_DzZ;SpDiam_DzZ;SpAD_DzZ;SpMAD_DzZ;LogEE_DzZ;VE1_DzZ;VE2_DzZ;VE3_DzZ;VR1_DzZ;VR2_DzZ;VR3_DzZ;SpAbs_Dzm;SpMax_Dzm;SpDiam_Dzm;SpAD_Dzm;SpMAD_Dzm;LogEE_Dzm;VE1_Dzm;VE2_Dzm;VE3_Dzm;VR1_Dzm;VR2_Dzm;VR3_Dzm;SpAbs_Dzv;SpMax_Dzv;SpDiam_Dzv;SpAD_Dzv;SpMAD_Dzv;LogEE_Dzv;VE1_Dzv;VE2_Dzv;VE3_Dzv;VR1_Dzv;VR2_Dzv;VR3_Dzv;SpAbs_Dzse;SpMax_Dzse;SpDiam_Dzse;SpAD_Dzse;SpMAD_Dzse;LogEE_Dzse;VE1_Dzse;VE2_Dzse;VE3_Dzse;VR1_Dzse;VR2_Dzse;VR3_Dzse;SpAbs_Dzpe;SpMax_Dzpe;SpDiam_Dzpe;SpAD_Dzpe;SpMAD_Dzpe;LogEE_Dzpe;VE1_Dzpe;VE2_Dzpe;VE3_Dzpe;VR1_Dzpe;VR2_Dzpe;VR3_Dzpe;SpAbs_Dzare;SpMax_Dzare;SpDiam_Dzare;SpAD_Dzare;SpMAD_Dzare;LogEE_Dzare;VE1_Dzare;VE2_Dzare;VE3_Dzare;VR1_Dzare;VR2_Dzare;VR3_Dzare;SpAbs_Dzp;SpMax_Dzp;SpDiam_Dzp;SpAD_Dzp;SpMAD_Dzp;LogEE_Dzp;VE1_Dzp;VE2_Dzp;VE3_Dzp;VR1_Dzp;VR2_Dzp;VR3_Dzp;SpAbs_Dzi;SpMax_Dzi;SpDiam_Dzi;SpAD_Dzi;SpMAD_Dzi;LogEE_Dzi;VE1_Dzi;VE2_Dzi;VE3_Dzi;VR1_Dzi;VR2_Dzi;VR3_Dzi;BertzCT;nBonds;nBondsO;nBondsS;nBondsKS;RNCG;RPCG;C1SP3;C2SP3;C3SP3;C4SP3;Xc-3d;Xc-4d;Xc-5d;Xc-6d;Xc-3dv;Xc-4dv;Xc-5dv;Xc-6dv;Xpc-4d;Xpc-5d;Xpc-6d;Xpc-4dv;Xpc-5dv;Xpc-6dv;Xp-0d;Xp-1d;Xp-2d;Xp-3d;Xp-4d;Xp-5d;Xp-6d;Xp-7d;AXp-0d;AXp-1d;Xp-0dv;Xp-1dv;Xp-2dv;Xp-3dv;Xp-4dv;Xp-5dv;Xp-6dv;Xp-7dv;AXp-0dv;AXp-1dv;SZ;Sm;Sv;Sse;Spe;Sare;Sp;Si;MZ;Mm;Mv;Mse;Mpe;Mare;Mp;Mi;SpAbs_D;SpMax_D;SpDiam_D;SpAD_D;SpMAD_D;LogEE_D;VE1_D;VE2_D;VE3_D;VR1_D;VR2_D;VR3_D;NsCH3;NssCH2;NsssCH;NssssC;SsCH3;SssCH2;SsssCH;SssssC;MAXsCH3;MINsCH3;ECIndex;ETA_alpha;ETA_shape_p;ETA_shape_y;ETA_shape_x;ETA_beta;AETA_beta;ETA_beta_s;AETA_beta_s;ETA_eta;AETA_eta;ETA_eta_L;AETA_eta_L;ETA_eta_R;AETA_eta_R;ETA_eta_RL;AETA_eta_RL;ETA_eta_B;AETA_eta_B;ETA_eta_BR;AETA_eta_BR;ETA_epsilon_1;ETA_epsilon_2;ETA_epsilon_3;ETA_epsilon_4;ETA_epsilon_5;ETA_dBeta;AETA_dBeta;ETA_psi_1;ETA_dPsi_B;fragCpx;IC0;IC1;IC2;IC3;IC4;IC5;TIC0;TIC1;TIC2;TIC3;TIC4;TIC5;SIC0;SIC1;SIC2;SIC3;SIC4;SIC5;BIC0;BIC1;BIC2;BIC3;BIC4;BIC5;CIC0;CIC1;CIC2;CIC3;CIC4;CIC5;MIC0;MIC1;MIC2;MIC3;MIC4;MIC5;ZMIC0;ZMIC1;ZMIC2;ZMIC3;ZMIC4;ZMIC5;Kier1;Lipinski;GhoseFilter;FilterItLogS;VMcGowan;LabuteASA;PEOE_VSA6;PEOE_VSA7;SMR_VSA4;SMR_VSA5;SlogP_VSA4;SlogP_VSA5;EState_VSA3;EState_VSA4;EState_VSA5;EState_VSA7;EState_VSA8;VSA_EState4;VSA_EState5;VSA_EState7;VSA_EState8;MDEC-11;MID;AMID;MID_C;AMID_C;MPC2;MPC3;MPC4;MPC5;MPC6;MPC7;MPC8;MPC9;MPC10;TMPC10;piPC1;piPC2;piPC3;piPC4;piPC5;piPC6;piPC7;piPC8;piPC9;piPC10;TpiPC10;apol;bpol;nRot;RotRatio;SLogP;SMR;GGI1;GGI2;GGI3;GGI4;GGI5;GGI6;GGI7;GGI8;GGI9;GGI10;JGI1;JGI2;JGI3;JGI4;JGI5;JGI6;JGI7;JGI8;JGI9;JGI10;JGT10;Diameter;Radius;TopoShapeIndex;PetitjeanIndex;Vabc;VAdjMat;MWC01;MWC02;MWC03;MWC04;MWC05;MWC06;MWC07;MWC08;MWC09;MWC10;TMWC10;SRW02;SRW04;SRW06;SRW08;SRW10;TSRW10;MW;AMW;WPath;WPol;Zagreb1;Zagreb2;mZagreb1;mZagreb2
117.7;CCCC(C)CCC;4-methylheptane;CHBAWFGIXDBEBT-UHFFFAOYSA-N;8.828427124746192;2.0000000000000004;4.0;8.828427124746192;1.103553390593274;2.8885322762542;2.598076211353316;0.3247595264191645;0.7316277011280096;21.904302963408274;2.738037870426034;2.863539548555527;26.0;8.0;18.0;8.0;28.0;27.0;24.0;18.0;10.0;4.0;1.0;0.0;0.0;46.0;55.0;95.0;101.0;94.0;66.0;51.0;18.0;9.0;40.77777777777778;48.5;74.58333333333333;91.16666666666666;89.25;79.0;55.0;24.0;9.0;306.0;360.0;433.0;423.0;368.0;254.0;130.0;48.0;9.0;1172.4021199999997;1227.7764309999995;1362.0561429999998;1256.2310939999998;1068.6189409999997;629.7301939999999;299.881177;84.835296;9.144576;3947.6426137513827;5029.877406914644;6581.332248221923;6822.461001246655;6095.416356169901;4638.363184336331;2627.730376106145;1061.424631394275;279.75369987837234;181.25648000000004;180.90098799999998;339.41733999999997;440.170584;437.75185999999997;374.819528;307.144612;123.32735999999998;60.466176;139.14000000000001;146.4975;265.5175;337.995;333.2525;284.70500000000004;227.16250000000002;91.74000000000001;43.56000000000001;137.12;142.75;260.66999999999996;333.18;329.13;281.34000000000003;225.81;91.08000000000001;43.56000000000001;30.314232287281996;39.56609758;56.481508443037;62.144277730923;57.12426501516801;46.089887586074;29.041181864866;12.016620718187998;4.001516143640999;4342.872585156481;3643.7663514622;7578.921304906437;10347.219172581725;10532.52288576137;9042.633905345874;7945.220002043466;3137.7471105683876;1664.2588682182407;1.0769230769230769;1.08;0.5;0.2857142857142857;1.7692307692307692;2.2;1.9791666666666667;1.6031746031746033;1.5683760683760684;1.94;1.5538194444444444;1.447089947089947;11.76923076923077;14.4;9.020833333333334;6.714285714285714;45.09238923076922;49.11105723999998;28.37616964583333;19.94017609523809;151.83240822120703;201.19509627658576;137.11108850462338;108.29303176581992;6.971403076923078;7.236039519999999;7.071194583333333;6.986834666666667;5.351538461538462;5.8599;5.531614583333333;5.365;5.273846153846154;5.71;5.430624999999999;5.288571428571428;1.1659320110493074;1.5826439032;1.1766980925632708;0.9864171068400477;167.03356096755698;145.750654058488;157.89419385221746;164.24157416796388;0.037263208760247274;-0.00582795237309529;-0.010580042687979336;-0.004679201845806155;0.0031360774791319383;-0.013252490778636137;0.00953928888308881;-0.0017429913094002747;0.004775708252572812;20.461538461538467;4.094674556213021;-7.31360946745562;-5.733727810650887;-7.272189349112428;-2.958579881656806;4.355029585798815;1.9881656804733723;2.609467455621302;6.615384615384615;1.7928994082840233;-2.1360946745562144;-2.9526627218934918;-2.568047337278106;0.10650887573964596;1.0118343195266284;0.9585798816568053;0.47928994082840265;3.0170940170940166;-1.1574621959237337;-0.3200197238658774;-0.5157790927021697;1.182938856015779;-1.6508875739644973;1.0473372781065082;-0.47337278106508884;0.3786982248520708;138.46153846153845;-11.982248520710048;-34.46745562130177;-23.964497041420117;-2.8106508875739635;-52.95857988165681;39.20118343195266;-3.550295857988168;21.301775147928993;670.5194344615384;-58.02572028994063;-166.91349169822468;-116.0514405798816;-13.610971426035526;-256.4593563431953;189.8372330473371;-17.192806011834378;103.15683607100584;1246.8595205864642;-107.9013046661365;-310.3827652741947;-215.80260933227268;-25.310182576007243;-476.897124326874;353.0104411916807;-31.970756938114416;191.82454162868683;0.13135015384615373;-0.01136684023668524;-0.032697207100590826;-0.02273368047337253;-0.0026662958579883565;-0.05023862721893507;0.03718781065088646;-0.003367952662722235;0.02020771597633096;0.6784615384615371;-0.058713017751480155;-0.16889053254437913;-0.11742603550295855;-0.013772189349112222;-0.25949704142011765;0.1920857988165686;-0.01739644970414167;0.10437869822485218;0.49846153846153785;-0.04313609467455702;-0.12408284023668689;-0.08627218934911249;-0.010118343195266121;-0.19065088757396412;0.14112426035503023;-0.012781065088757123;0.07668639053254457;5.574042193009846;-0.4823690359335449;-1.3875553749693317;-0.9647380718670886;-0.11314829237947333;-2.1319520353606034;1.5781209200294974;-0.1429241587951241;0.8575449527707456;30.278285659102124;-2.620236258960828;-7.537222818985942;-5.240472517921535;-0.6146233200031292;-11.580797292690756;8.572377884254404;-0.7763662989513151;4.658197793708041;0.0014332003369325874;-0.00023311809492381158;-0.0002204175559995695;-7.427304517152627e-05;0.7869822485207103;0.16378698224852084;-0.15236686390532542;-0.09101155255001407;0.2544378698224852;0.07171597633136093;-0.0445019723865878;-0.04686766225227765;0.1160420775805391;-0.04629848783694935;-0.006667077580539113;-0.008186969725431266;5.325443786982248;-0.47928994082840193;-0.7180719921104535;-0.38038884192730343;25.789209017751475;-2.321028811597625;-3.4773644103796806;-1.8420863584108191;47.9561354071717;-4.31605218664546;-6.466307609879056;-3.4254382433694075;0.005051928994082836;-0.0004546736094674096;-0.0006811918145956422;-0.0003608520710059132;0.026094674556212966;-0.002348520710059206;-0.003518552761341232;-0.0018639053254437864;0.01917159763313607;-0.0017254437869822809;-0.0025850591715976434;-0.0013693998309382935;0.21438623819268637;-0.019294761437341795;-0.02890740364519441;-0.015313302728049025;1.1645494484270047;-0.10480945035843313;-0.15702547539554046;-0.08318210345907198;-0.16265562386256724;-0.15379396049495705;-0.05182321218992276;0.2081203007518798;-0.1936090225563909;-0.11564625850340131;-0.39898016997167124;-0.05745396600566568;-0.07055173344125187;-0.08999999999999991;-0.13483796296296294;-0.07142857142857142;-0.0899999999999997;-0.13483796296296283;-0.07142857142857141;-0.09000000000000015;-0.134837962962963;-0.07142857142857142;-0.08999999999999098;-0.1348379629629594;-0.0714285714285707;-0.09000000000000151;-0.13483796296296358;-0.07142857142857155;-0.0900000000000018;-0.13483796296296366;-0.07142857142857158;-0.0900000000000001;-0.134837962962963;-0.07142857142857142;-0.09000000000000231;-0.13483796296296388;-0.0714285714285716;1.697672894521464;1.2514840004428962;1.024340153606927;1.4172932330827064;1.7563439849624056;1.2218045112781952;2.0070821529745047;0.9350655099150144;0.942600836368542;1.625;1.316550925925926;1.0747354497354498;1.6250000000000007;1.3165509259259263;1.07473544973545;1.6249999999999998;1.3165509259259258;1.0747354497354498;1.625;1.3165509259259258;1.0747354497354495;1.6249999999999998;1.3165509259259256;1.0747354497354495;1.6250000000000002;1.3165509259259263;1.07473544973545;1.6250000000000002;1.3165509259259263;1.0747354497354498;1.625;1.3165509259259263;1.0747354497354495;0.20605176077196552;-0.20771976236232687;3.025752007215498;0.9871447154965199;3.025752007215498;0.9871447154965199;2.0268473260159148;1.2312858596347813;6.209098781647059;5.795908684728888;12.220098781647073;11.80690868472888;20.788625057762594;20.375434960844405;2.9550987816470498;2.541908684728886;2.7590987816470514;2.345908684728889;2.709098781647054;2.2959086847288854;1.8790987816470508;1.4659086847288847;11.46939878164706;11.056208684728889;2.919612641438553;39.08404610016284;19.542023050081415;29.63985772912602;39.08404610016284;4.885505762520355;19.542023060147955;2.7787234617413565;0.34734043271766957;0.7988480845059929;22.064242304299256;2.758030288037407;2.87081475156092;39.08404610016284;19.542023050081415;29.63985772912602;39.08404610016284;4.885505762520355;19.542023060147955;2.7787234617413565;0.34734043271766957;0.7988480845059929;22.064242304299256;2.758030288037407;2.87081475156092;39.08404610016284;19.542023050081415;29.63985772912602;39.08404610016284;4.885505762520355;19.542023060147955;2.7787234617413565;0.34734043271766957;0.7988480845059929;22.064242304299256;2.758030288037407;2.87081475156092;39.08404610016284;19.542023050081415;29.63985772912602;39.08404610016284;4.885505762520355;19.542023060147955;2.7787234617413565;0.34734043271766957;0.7988480845059929;22.064242304299256;2.758030288037407;2.87081475156092;39.08404610016284;19.542023050081415;29.63985772912602;39.08404610016284;4.885505762520355;19.542023060147955;2.7787234617413565;0.34734043271766957;0.7988480845059929;22.064242304299256;2.758030288037407;2.87081475156092;39.08404610016284;19.542023050081415;29.63985772912602;39.08404610016284;4.885505762520355;19.542023060147955;2.7787234617413565;0.34734043271766957;0.7988480845059929;22.064242304299256;2.758030288037407;2.87081475156092;39.08404610016284;19.542023050081415;29.63985772912602;39.08404610016284;4.885505762520355;19.542023060147955;2.7787234617413565;0.34734043271766957;0.7988480845059929;22.064242304299256;2.758030288037407;2.87081475156092;39.08404610016284;19.542023050081415;29.63985772912602;39.08404610016284;4.885505762520355;19.542023060147955;2.7787234617413565;0.34734043271766957;0.7988480845059929;22.064242304299256;2.758030288037407;2.87081475156092;33.30296890880646;25.0;7.0;25.0;25.0;0.14484106936018437;0.06643442002471041;3.0;4.0;1.0;0.0;0.28867513459481287;0.0;0.0;0.0;0.28867513459481287;0.0;0.0;0.0;0.408248290463863;0.5525858577612694;0.28867513459481287;0.408248290463863;0.5525858577612694;0.28867513459481287;6.405777393935816;3.808060412490447;2.6825219847121646;1.5629488288431146;1.1299361269508952;0.28867513459481287;0.14433756729740643;0.0;0.800722174241977;0.5440086303557782;6.405777393935816;3.808060412490447;2.6825219847121646;1.5629488288431146;1.1299361269508952;0.28867513459481287;0.14433756729740643;0.0;0.800722174241977;0.5440086303557782;11.0;9.510615269336444;12.87645023407287;24.990531682447198;23.529411764705884;23.84;15.186990419161678;29.737606813317583;0.4230769230769231;0.36579289497447864;0.4952480859258796;0.9611742954787383;0.904977375565611;0.916923076923077;0.584115016121603;1.1437541082045224;39.08404610016284;19.542023050081415;29.63985772912602;39.08404610016284;4.885505762520355;19.542023060147955;2.7787234617413565;0.34734043271766957;0.7988480845059929;22.064242304299256;2.758030288037407;2.87081475156092;3.0;4.0;1.0;0.0;6.8525;5.517870370370371;0.9629629629629628;0.0;2.3402777777777777;2.256111111111111;61.0;4.0;0.375;0.125;0.0;3.5;0.4375;3.5;0.4375;8.49822306864608;1.06227788358076;3.808060412490447;0.47600755156130586;8.49822306864608;1.06227788358076;3.808060412490447;0.47600755156130586;0.10615314988264801;0.013269143735331002;0.10615314988264801;0.013269143735331002;0.4230769230769231;0.7;0.4230769230769231;0.4230769230769231;0.7;-3.5;-0.4375;0.7142857142857143;0.00028571428571433355;7.0;0.8904916402194913;1.322995967059358;2.449311833026446;3.0748757755837692;3.0748757755837692;3.0748757755837692;23.152782645706775;34.39789514354331;63.68210765868759;79.946770165178;79.946770165178;79.946770165178;0.1894485821789581;0.2814621708588937;0.5210814263979303;0.6541676864222837;0.6541676864222837;0.6541676864222837;0.19175693730143042;0.28489167471905225;0.5274305949481315;0.6621384577658364;0.6621384577658364;0.6621384577658364;3.8099480779216;3.3774437510817337;2.251127885114646;1.6255639425573225;1.6255639425573225;1.6255639425573225;6.654519640635535;11.849329110309174;15.843271933446484;16.473840387544264;16.473840387544264;16.473840387544264;31.72521615294554;24.13720727697972;21.551431155985533;19.92876622332327;19.92876622332327;19.92876622332327;8.0;1.0;0.0;-2.6520022005496857;123.58000000000004;53.293845828605804;46.454498090775914;5.917906046161393;5.917906046161393;46.454498090775914;5.917906046161393;46.454498090775914;0.0;5.917906046161393;25.683286491704038;0.0;20.771211599071872;0.0;0.9629629629629628;5.517870370370371;6.8525;0.6551853485522243;14.658474095218855;1.8323092619023569;14.658474095218855;1.8323092619023569;7.0;6.0;5.0;2.0;1.0;0.0;0.0;0.0;0.0;36.0;2.0794415416798357;2.0794415416798357;1.9459101490553132;1.791759469228055;1.0986122886681098;0.6931471805599453;0.0;0.0;0.0;0.0;3.6109179126442243;25.362274;18.057726;4.0;0.5714285714285714;3.2227000000000023;38.98;1.5;0.666666666666667;0.375;0.08000000000000002;0.05555555555555555;0.0;0.0;0.0;0.0;0.0;0.21428571428571425;0.09523809523809526;0.0625;0.016000000000000004;0.027777777777777776;0.0;0.0;0.0;0.0;0.0;0.4158015873015873;6.0;3.0;1.0;0.5;146.92434073860016;3.807354922057604;7.0;3.367295829986474;4.007333185232471;4.709530201312334;5.3706380281276624;6.0844994130751715;6.75110146893676;7.467942332285852;8.13593277200489;8.85352256068954;69.74779579165116;2.70805020110221;3.7612001156935624;4.990432586778736;6.304448802421981;7.656810091480378;33.42094179747687;114.14085057599999;4.3900327144615385;75.0;6.0;28.0;27.0;4.111111111111111;2.166666666666667