boiling_point;SMILES;IUPAC_name;InChIKey;SpAbs_A;SpMax_A;SpDiam_A;SpAD_A;SpMAD_A;LogEE_A;VE1_A;VE2_A;VE3_A;VR1_A;VR2_A;VR3_A;nAtom;nHeavyAtom;nH;nC;ATS0dv;ATS1dv;ATS2dv;ATS3dv;ATS4dv;ATS5dv;ATS6dv;ATS7dv;ATS8dv;ATS0d;ATS1d;ATS2d;ATS3d;ATS4d;ATS5d;ATS6d;ATS7d;ATS8d;ATS0s;ATS1s;ATS2s;ATS3s;ATS4s;ATS5s;ATS6s;ATS7s;ATS8s;ATS0Z;ATS1Z;ATS2Z;ATS3Z;ATS4Z;ATS5Z;ATS6Z;ATS7Z;ATS8Z;ATS0m;ATS1m;ATS2m;ATS3m;ATS4m;ATS5m;ATS6m;ATS7m;ATS8m;ATS0v;ATS1v;ATS2v;ATS3v;ATS4v;ATS5v;ATS6v;ATS7v;ATS8v;ATS0se;ATS1se;ATS2se;ATS3se;ATS4se;ATS5se;ATS6se;ATS7se;ATS8se;ATS0pe;ATS1pe;ATS2pe;ATS3pe;ATS4pe;ATS5pe;ATS6pe;ATS7pe;ATS8pe;ATS0are;ATS1are;ATS2are;ATS3are;ATS4are;ATS5are;ATS6are;ATS7are;ATS8are;ATS0p;ATS1p;ATS2p;ATS3p;ATS4p;ATS5p;ATS6p;ATS7p;ATS8p;ATS0i;ATS1i;ATS2i;ATS3i;ATS4i;ATS5i;ATS6i;ATS7i;ATS8i;AATS0dv;AATS1dv;AATS2dv;AATS3dv;AATS0d;AATS1d;AATS2d;AATS3d;AATS0s;AATS1s;AATS2s;AATS3s;AATS0Z;AATS1Z;AATS2Z;AATS3Z;AATS0m;AATS1m;AATS2m;AATS3m;AATS0v;AATS1v;AATS2v;AATS3v;AATS0se;AATS1se;AATS2se;AATS3se;AATS0pe;AATS1pe;AATS2pe;AATS3pe;AATS0are;AATS1are;AATS2are;AATS3are;AATS0p;AATS1p;AATS2p;AATS3p;AATS0i;AATS1i;AATS2i;AATS3i;ATSC0c;ATSC1c;ATSC2c;ATSC3c;ATSC4c;ATSC5c;ATSC6c;ATSC7c;ATSC8c;ATSC0dv;ATSC1dv;ATSC2dv;ATSC3dv;ATSC4dv;ATSC5dv;ATSC6dv;ATSC7dv;ATSC8dv;ATSC0d;ATSC1d;ATSC2d;ATSC3d;ATSC4d;ATSC5d;ATSC6d;ATSC7d;ATSC8d;ATSC0s;ATSC1s;ATSC2s;ATSC3s;ATSC4s;ATSC5s;ATSC6s;ATSC7s;ATSC8s;ATSC0Z;ATSC1Z;ATSC2Z;ATSC3Z;ATSC4Z;ATSC5Z;ATSC6Z;ATSC7Z;ATSC8Z;ATSC0m;ATSC1m;ATSC2m;ATSC3m;ATSC4m;ATSC5m;ATSC6m;ATSC7m;ATSC8m;ATSC0v;ATSC1v;ATSC2v;ATSC3v;ATSC4v;ATSC5v;ATSC6v;ATSC7v;ATSC8v;ATSC0se;ATSC1se;ATSC2se;ATSC3se;ATSC4se;ATSC5se;ATSC6se;ATSC7se;ATSC8se;ATSC0pe;ATSC1pe;ATSC2pe;ATSC3pe;ATSC4pe;ATSC5pe;ATSC6pe;ATSC7pe;ATSC8pe;ATSC0are;ATSC1are;ATSC2are;ATSC3are;ATSC4are;ATSC5are;ATSC6are;ATSC7are;ATSC8are;ATSC0p;ATSC1p;ATSC2p;ATSC3p;ATSC4p;ATSC5p;ATSC6p;ATSC7p;ATSC8p;ATSC0i;ATSC1i;ATSC2i;ATSC3i;ATSC4i;ATSC5i;ATSC6i;ATSC7i;ATSC8i;AATSC0c;AATSC1c;AATSC2c;AATSC3c;AATSC0dv;AATSC1dv;AATSC2dv;AATSC3dv;AATSC0d;AATSC1d;AATSC2d;AATSC3d;AATSC0s;AATSC1s;AATSC2s;AATSC3s;AATSC0Z;AATSC1Z;AATSC2Z;AATSC3Z;AATSC0m;AATSC1m;AATSC2m;AATSC3m;AATSC0v;AATSC1v;AATSC2v;AATSC3v;AATSC0se;AATSC1se;AATSC2se;AATSC3se;AATSC0pe;AATSC1pe;AATSC2pe;AATSC3pe;AATSC0are;AATSC1are;AATSC2are;AATSC3are;AATSC0p;AATSC1p;AATSC2p;AATSC3p;AATSC0i;AATSC1i;AATSC2i;AATSC3i;MATS1c;MATS2c;MATS3c;MATS1dv;MATS2dv;MATS3dv;MATS1s;MATS2s;MATS3s;MATS1Z;MATS2Z;MATS3Z;MATS1m;MATS2m;MATS3m;MATS1v;MATS2v;MATS3v;MATS1se;MATS2se;MATS3se;MATS1pe;MATS2pe;MATS3pe;MATS1are;MATS2are;MATS3are;MATS1p;MATS2p;MATS3p;MATS1i;MATS2i;MATS3i;GATS1c;GATS2c;GATS3c;GATS1dv;GATS2dv;GATS3dv;GATS1s;GATS2s;GATS3s;GATS1Z;GATS2Z;GATS3Z;GATS1m;GATS2m;GATS3m;GATS1v;GATS2v;GATS3v;GATS1se;GATS2se;GATS3se;GATS1pe;GATS2pe;GATS3pe;GATS1are;GATS2are;GATS3are;GATS1p;GATS2p;GATS3p;GATS1i;GATS2i;GATS3i;BCUTc-1h;BCUTc-1l;BCUTdv-1h;BCUTdv-1l;BCUTd-1h;BCUTd-1l;BCUTs-1h;BCUTs-1l;BCUTZ-1h;BCUTZ-1l;BCUTm-1h;BCUTm-1l;BCUTv-1h;BCUTv-1l;BCUTse-1h;BCUTse-1l;BCUTpe-1h;BCUTpe-1l;BCUTare-1h;BCUTare-1l;BCUTp-1h;BCUTp-1l;BCUTi-1h;BCUTi-1l;BalabanJ;SpAbs_DzZ;SpMax_DzZ;SpDiam_DzZ;SpAD_DzZ;SpMAD_DzZ;LogEE_DzZ;VE1_DzZ;VE2_DzZ;VE3_DzZ;VR1_DzZ;VR2_DzZ;VR3_DzZ;SpAbs_Dzm;SpMax_Dzm;SpDiam_Dzm;SpAD_Dzm;SpMAD_Dzm;LogEE_Dzm;VE1_Dzm;VE2_Dzm;VE3_Dzm;VR1_Dzm;VR2_Dzm;VR3_Dzm;SpAbs_Dzv;SpMax_Dzv;SpDiam_Dzv;SpAD_Dzv;SpMAD_Dzv;LogEE_Dzv;VE1_Dzv;VE2_Dzv;VE3_Dzv;VR1_Dzv;VR2_Dzv;VR3_Dzv;SpAbs_Dzse;SpMax_Dzse;SpDiam_Dzse;SpAD_Dzse;SpMAD_Dzse;LogEE_Dzse;VE1_Dzse;VE2_Dzse;VE3_Dzse;VR1_Dzse;VR2_Dzse;VR3_Dzse;SpAbs_Dzpe;SpMax_Dzpe;SpDiam_Dzpe;SpAD_Dzpe;SpMAD_Dzpe;LogEE_Dzpe;VE1_Dzpe;VE2_Dzpe;VE3_Dzpe;VR1_Dzpe;VR2_Dzpe;VR3_Dzpe;SpAbs_Dzare;SpMax_Dzare;SpDiam_Dzare;SpAD_Dzare;SpMAD_Dzare;LogEE_Dzare;VE1_Dzare;VE2_Dzare;VE3_Dzare;VR1_Dzare;VR2_Dzare;VR3_Dzare;SpAbs_Dzp;SpMax_Dzp;SpDiam_Dzp;SpAD_Dzp;SpMAD_Dzp;LogEE_Dzp;VE1_Dzp;VE2_Dzp;VE3_Dzp;VR1_Dzp;VR2_Dzp;VR3_Dzp;SpAbs_Dzi;SpMax_Dzi;SpDiam_Dzi;SpAD_Dzi;SpMAD_Dzi;LogEE_Dzi;VE1_Dzi;VE2_Dzi;VE3_Dzi;VR1_Dzi;VR2_Dzi;VR3_Dzi;BertzCT;nBonds;nBondsO;nBondsS;nBondsKS;RNCG;RPCG;C1SP3;C2SP3;C3SP3;C4SP3;Xc-3d;Xc-4d;Xc-5d;Xc-6d;Xc-3dv;Xc-4dv;Xc-5dv;Xc-6dv;Xpc-4d;Xpc-5d;Xpc-6d;Xpc-4dv;Xpc-5dv;Xpc-6dv;Xp-0d;Xp-1d;Xp-2d;Xp-3d;Xp-4d;Xp-5d;Xp-6d;Xp-7d;AXp-0d;AXp-1d;Xp-0dv;Xp-1dv;Xp-2dv;Xp-3dv;Xp-4dv;Xp-5dv;Xp-6dv;Xp-7dv;AXp-0dv;AXp-1dv;SZ;Sm;Sv;Sse;Spe;Sare;Sp;Si;MZ;Mm;Mv;Mse;Mpe;Mare;Mp;Mi;SpAbs_D;SpMax_D;SpDiam_D;SpAD_D;SpMAD_D;LogEE_D;VE1_D;VE2_D;VE3_D;VR1_D;VR2_D;VR3_D;NsCH3;NssCH2;NsssCH;NssssC;SsCH3;SssCH2;SsssCH;SssssC;MAXsCH3;MINsCH3;ECIndex;ETA_alpha;ETA_shape_p;ETA_shape_y;ETA_shape_x;ETA_beta;AETA_beta;ETA_beta_s;AETA_beta_s;ETA_eta;AETA_eta;ETA_eta_L;AETA_eta_L;ETA_eta_R;AETA_eta_R;ETA_eta_RL;AETA_eta_RL;ETA_eta_B;AETA_eta_B;ETA_eta_BR;AETA_eta_BR;ETA_epsilon_1;ETA_epsilon_2;ETA_epsilon_3;ETA_epsilon_4;ETA_epsilon_5;ETA_dBeta;AETA_dBeta;ETA_psi_1;ETA_dPsi_B;fragCpx;IC0;IC1;IC2;IC3;IC4;IC5;TIC0;TIC1;TIC2;TIC3;TIC4;TIC5;SIC0;SIC1;SIC2;SIC3;SIC4;SIC5;BIC0;BIC1;BIC2;BIC3;BIC4;BIC5;CIC0;CIC1;CIC2;CIC3;CIC4;CIC5;MIC0;MIC1;MIC2;MIC3;MIC4;MIC5;ZMIC0;ZMIC1;ZMIC2;ZMIC3;ZMIC4;ZMIC5;Kier1;Lipinski;GhoseFilter;FilterItLogS;VMcGowan;LabuteASA;PEOE_VSA6;PEOE_VSA7;SMR_VSA4;SMR_VSA5;SlogP_VSA4;SlogP_VSA5;EState_VSA3;EState_VSA4;EState_VSA5;EState_VSA7;EState_VSA8;VSA_EState4;VSA_EState5;VSA_EState7;VSA_EState8;MDEC-11;MID;AMID;MID_C;AMID_C;MPC2;MPC3;MPC4;MPC5;MPC6;MPC7;MPC8;MPC9;MPC10;TMPC10;piPC1;piPC2;piPC3;piPC4;piPC5;piPC6;piPC7;piPC8;piPC9;piPC10;TpiPC10;apol;bpol;nRot;RotRatio;SLogP;SMR;GGI1;GGI2;GGI3;GGI4;GGI5;GGI6;GGI7;GGI8;GGI9;GGI10;JGI1;JGI2;JGI3;JGI4;JGI5;JGI6;JGI7;JGI8;JGI9;JGI10;JGT10;Diameter;Radius;TopoShapeIndex;PetitjeanIndex;Vabc;VAdjMat;MWC01;MWC02;MWC03;MWC04;MWC05;MWC06;MWC07;MWC08;MWC09;MWC10;TMWC10;SRW02;SRW04;SRW06;SRW08;SRW10;TSRW10;MW;AMW;WPath;WPol;Zagreb1;Zagreb2;mZagreb1;mZagreb2
189.2;CCCCCCCCC(C)C;2-methyldecane;CNPVJWYWYZMPDS-UHFFFAOYSA-N;12.784906442999326;1.9753766811902755;3.9507533623805515;12.784906442999326;1.1622642220908477;3.210676422388676;3.064800550361619;0.2786182318510563;1.215292673783663;40.62733991310055;3.6933945375545956;3.79975141665647;35.0;11.0;24.0;11.0;40.0;38.0;33.0;28.0;24.0;20.0;16.0;12.0;7.0;64.0;78.0;133.0;144.0;137.0;112.0;96.0;80.0;63.0;53.52777777777778;64.16666666666666;102.91666666666666;129.66666666666666;120.41666666666666;99.16666666666666;86.91666666666666;74.66666666666666;62.33333333333333;420.0;504.0;616.0;590.0;505.0;432.0;368.0;304.0;240.0;1611.2908669999997;1733.2113219999997;1943.1817539999995;1725.4352719999997;1471.2769749999998;1265.3756699999994;1068.6189409999997;871.8622119999998;675.1054829999998;5404.695785584951;6988.847810385744;9321.973583208928;9617.728622672807;8388.766745958525;7102.214701125026;6095.416356169901;5088.618011214776;4081.8196662596506;244.18881200000007;246.228328;467.605864;628.8015680000001;623.987836;500.63676000000004;437.75186;374.86695999999995;311.98206;187.6875;199.66500000000002;366.865;482.78;473.41749999999996;381.55499999999995;333.2525;284.95;236.64749999999998;184.91;194.5;359.94000000000005;475.92;467.90999999999997;376.74;329.13;281.52;233.91;41.348609716376004;54.61406344;79.544578877584;88.202440024262;79.168838877601;66.145793874564;57.124265015168;48.10273615577199;39.081207296376;5832.761565571976;4942.8847060096;10351.527901803986;14778.617725009064;15154.692064056802;12011.478040799964;10532.522885761367;9053.56773072277;7574.612575684176;1.1428571428571428;1.1176470588235294;0.5;0.3111111111111111;1.8285714285714285;2.2941176470588234;2.015151515151515;1.6;1.5293650793650795;1.887254901960784;1.5593434343434343;1.4407407407407407;12.0;14.823529411764707;9.333333333333334;6.555555555555555;46.03688191428571;50.976803588235285;29.44214778787878;19.17150302222222;154.41987958814147;205.5543473642866;141.24202398801407;106.86365136303118;6.976823200000002;7.242009647058824;7.084937333333333;6.9866840888888895;5.3625;5.8725000000000005;5.558560606060606;5.364222222222222;5.283142857142857;5.720588235294118;5.453636363636364;5.288;1.1813888490393143;1.606295983529412;1.2052208920846061;0.9800271113806889;166.65033044491358;145.37896194145884;156.84133184551493;164.20686361121182;0.050018034144852175;-0.005538604620026299;-0.015424137295117856;-0.011883950270742452;0.004991914386720727;2.5529128712200883e-06;-9.944231558555762e-06;-8.399144160625791e-06;0.00031761248459204;28.571428571428573;3.387755102040817;-14.020408163265305;-4.3265306122448965;1.9591836734693877;-1.0612244897959189;-1.1428571428571428;-1.2244897959183678;-2.3061224489795924;8.685714285714285;0.9910204081632659;-4.064489795918368;-0.3918367346938776;0.15102040816326529;-0.4963265306122451;-0.5485714285714286;-0.6008163265306125;-1.6530612244897962;3.5269841269841264;-1.2071655328798183;-0.010408163265305859;-1.1265306122448981;0.3806122448979589;0.03020408163265298;0.022857142857142743;0.015510204081632561;-0.07517006802721099;188.57142857142858;-11.755102040816357;-58.448979591836746;-49.183673469387756;20.102040816326543;-2.2040816326530575;-2.2857142857142847;-2.36734693877551;-2.4489795918367303;913.183610742857;-56.925731578775725;-283.04738757224504;-238.17884219591835;97.34695417551026;-10.673574671020367;-11.068892251428537;-11.464209831836698;-11.859527412244873;1698.1039185129935;-105.85582868652409;-526.3387037468844;-442.9037276641033;181.02081815317075;-19.84796787872336;-20.583077800157554;-21.318187721591727;-22.053297643025957;0.17888639999999978;-0.011151360000000072;-0.05544704000000002;-0.046657599999999966;0.01906960000000001;-0.002090879999999987;-0.0021683199999999875;-0.002245759999999982;-0.00232319999999998;0.9239999999999982;-0.0575999999999998;-0.2863999999999993;-0.2409999999999995;0.09849999999999975;-0.010799999999999992;-0.011199999999999988;-0.0116;-0.012000000000000004;0.678857142857142;-0.04231836734693924;-0.21041632653061243;-0.17706122448979578;0.07236734693877561;-0.00793469387755094;-0.008228571428571335;-0.008522448979591736;-0.008816326530612133;7.591314605718172;-0.4732248065902225;-2.3529788994347225;-1.9799857359070119;0.8092472821030732;-0.08872965123566703;-0.09201593461476598;-0.09530221799386485;-0.09858850137296349;41.23614142144384;-2.570564660038149;-12.781418726300416;-10.755313942173137;4.395844080099837;-0.4819808737571225;-0.4998320172296076;-0.5176831607020929;-0.5355343041745786;0.0014290866898529193;-0.00016290013588312645;-0.00023369904992602813;-0.00013204389189713835;0.8163265306122449;0.09963985594237697;-0.21243042671614099;-0.04807256235827663;0.24816326530612243;0.029147659063625465;-0.06158317872603587;-0.00435374149659864;0.10077097505668933;-0.035504868614112305;-0.00015769944341372514;-0.01251700680272109;5.387755102040817;-0.34573829531812816;-0.8855905998763144;-0.546485260770975;26.090960306938772;-1.6742862229051685;-4.288596781397652;-2.6464315799546485;48.51725481465696;-3.113406726074238;-7.974828844649764;-4.921152529601148;0.005111039999999994;-0.00032798117647059034;-0.0008401066666666669;-0.0005184177777777774;0.026399999999999948;-0.0016941176470588175;-0.004339393939393929;-0.002677777777777772;0.019395918367346915;-0.0012446578631452718;-0.003188126159554734;-0.0019673469387755087;0.2168947030205192;-0.013918376664418308;-0.035651195445980645;-0.02199984151007791;1.1781754691841098;-0.07560484294229851;-0.19365785948940023;-0.1195034882463682;-0.11398898124220304;-0.16353035234698063;-0.09239739816674679;0.12205882352941178;-0.2602272727272727;-0.05888888888888887;-0.3523322920527347;-0.0015649292201947074;-0.12421242124212424;-0.06417112299465257;-0.16437098255280075;-0.10143097643097643;-0.06417112299465266;-0.16437098255280086;-0.10143097643097644;-0.0641711229946523;-0.1643709825528007;-0.10143097643097644;-0.0641711229946529;-0.16437098255280097;-0.10143097643097648;-0.06417112299465232;-0.1643709825528007;-0.1014309764309764;-0.06417112299465319;-0.16437098255280108;-0.10143097643097648;-0.06417112299465223;-0.16437098255280067;-0.1014309764309764;-0.0641711229946547;-0.1643709825528017;-0.10143097643097658;1.6405866474134898;1.3086397092347894;1.0982155041124202;1.47;1.730909090909091;1.018111111111111;1.9531953195319534;0.9250470501595616;1.097884788478848;1.5909090909090908;1.3659320477502295;1.1018518518518516;1.5909090909090913;1.36593204775023;1.1018518518518523;1.5909090909090913;1.36593204775023;1.101851851851852;1.5909090909090908;1.3659320477502297;1.1018518518518519;1.590909090909091;1.3659320477502297;1.1018518518518516;1.5909090909090913;1.36593204775023;1.101851851851852;1.5909090909090908;1.3659320477502293;1.1018518518518516;1.5909090909090913;1.3659320477502301;1.101851851851852;0.20667034123246236;-0.20536021504223037;3.0219128299165297;0.9871398243005975;3.0219128299165297;0.9871398243005975;2.036931827100989;1.2512701848327241;6.209000847168809;5.798322390212948;12.220000847168805;11.809322390212944;20.78852712328437;20.377848666328475;2.955000847168813;2.544322390212942;2.7590008471688123;2.3483223902129478;2.7090008471688107;2.2983223902129426;1.8790008471688133;1.4683223902129445;11.469300847168812;11.058622390212953;2.7964218719764764;79.98305808125902;39.991529040629516;63.7690780299701;79.98305808125903;7.271187098296275;39.991529040629516;3.264959009175418;0.29681445537958345;1.2785573878368859;35.77509242544277;3.2522811295857066;3.672562088763915;79.98305808125902;39.991529040629516;63.7690780299701;79.98305808125903;7.271187098296275;39.991529040629516;3.264959009175418;0.29681445537958345;1.2785573878368859;35.77509242544277;3.2522811295857066;3.672562088763915;79.98305808125902;39.991529040629516;63.7690780299701;79.98305808125903;7.271187098296275;39.991529040629516;3.264959009175418;0.29681445537958345;1.2785573878368859;35.77509242544277;3.2522811295857066;3.672562088763915;79.98305808125902;39.991529040629516;63.7690780299701;79.98305808125903;7.271187098296275;39.991529040629516;3.264959009175418;0.29681445537958345;1.2785573878368859;35.77509242544277;3.2522811295857066;3.672562088763915;79.98305808125902;39.991529040629516;63.7690780299701;79.98305808125903;7.271187098296275;39.991529040629516;3.264959009175418;0.29681445537958345;1.2785573878368859;35.77509242544277;3.2522811295857066;3.672562088763915;79.98305808125902;39.991529040629516;63.7690780299701;79.98305808125903;7.271187098296275;39.991529040629516;3.264959009175418;0.29681445537958345;1.2785573878368859;35.77509242544277;3.2522811295857066;3.672562088763915;79.98305808125902;39.991529040629516;63.7690780299701;79.98305808125903;7.271187098296275;39.991529040629516;3.264959009175418;0.29681445537958345;1.2785573878368859;35.77509242544277;3.2522811295857066;3.672562088763915;79.98305808125902;39.991529040629516;63.7690780299701;79.98305808125903;7.271187098296275;39.991529040629516;3.264959009175418;0.29681445537958345;1.2785573878368859;35.77509242544277;3.2522811295857066;3.672562088763915;64.43856189774723;34.0;10.0;34.0;34.0;0.10687630506384325;0.048551640792018104;3.0;7.0;1.0;0.0;0.408248290463863;0.0;0.0;0.0;0.408248290463863;0.0;0.0;0.0;0.28867513459481287;0.2041241452319315;0.14433756729740643;0.28867513459481287;0.2041241452319315;0.14433756729740643;8.52709773749546;5.270055610029662;3.950288937678534;2.135027805014831;1.3329159436511802;0.8175139025074155;0.4896812765289532;0.28375695125370776;0.7751907034086781;0.5270055610029661;8.52709773749546;5.270055610029662;3.950288937678534;2.135027805014831;1.3329159436511802;0.8175139025074155;0.4896812765289532;0.28375695125370776;0.7751907034086781;0.5270055610029661;14.999999999999998;13.014153692448593;17.501933645430487;33.654042243262936;31.705882352941178;32.120000000000005;20.582653892215575;39.98347575109011;0.42857142857142855;0.3718329626413884;0.5000552470122996;0.9615440640932267;0.9058823529411765;0.9177142857142858;0.5880758254918735;1.1423850214597175;79.98305808125902;39.991529040629516;63.7690780299701;79.98305808125903;7.271187098296275;39.991529040629516;3.264959009175418;0.29681445537958345;1.2785573878368859;35.77509242544277;3.2522811295857066;3.672562088763915;3.0;7.0;1.0;0.0;6.8950425432518685;10.034424918115393;0.9038658719660702;0.0;2.311550532249937;2.2719414787519945;139.0;5.5;0.2727272727272727;0.09090909090909091;0.0;5.0;0.45454545454545453;5.0;0.45454545454545453;12.84546477824895;1.167769525295359;5.270055610029662;0.47909596454815107;12.84546477824895;1.167769525295359;5.270055610029662;0.47909596454815107;0.14415795234343332;0.013105268394857573;0.14415795234343332;0.013105268394857573;0.42571428571428566;0.7;0.42571428571428566;0.42571428571428566;0.7;-5.0;-0.45454545454545453;0.7142857142857143;0.00028571428571433355;10.0;0.898058793450166;1.287983817691411;2.402370605624278;3.293887846729894;3.8214419452073276;4.093149802473811;31.43205777075581;45.079433619199385;84.08297119684974;115.28607463554629;133.75046808225648;143.2602430865834;0.17508466397415823;0.25110406531214224;0.46836382349889233;0.6421731528262901;0.7450245838615087;0.7979964819550389;0.17652390228160394;0.25316820149488595;0.4722138874696627;0.6474519715450854;0.751148866232925;0.8045562061477078;4.2312242234948005;3.8412991992535552;2.726912411320688;1.8353951702150724;1.3078410717376387;1.036133214471155;6.679732529265542;11.363121995427134;15.880607777602751;18.934195641035032;20.96077094905184;21.23465246917646;43.59544950046522;34.80984237770156;30.46411462835948;23.358392899460586;18.924909954968584;17.72364874409094;11.0;1.0;0.0;-3.9091762724663903;165.85000000000005;72.38867217179562;65.71696295955394;5.917906046161393;5.917906046161393;65.71696295955394;5.917906046161393;65.71696295955394;0.0;5.917906046161393;44.94575136048208;0.0;20.771211599071872;0.0;0.9038658719660702;10.034424918115393;6.8950425432518685;0.5503212081491045;20.66210382027495;1.87837307457045;20.66210382027495;1.87837307457045;10.0;8.0;7.0;6.0;5.0;4.0;3.0;2.0;0.0;66.0;2.3978952727983707;2.3978952727983707;2.1972245773362196;2.0794415416798357;1.9459101490553132;1.791759469228055;1.6094379124341003;1.3862943611198906;1.0986122886681098;0.0;4.204692619390966;34.373031999999995;24.076968;7.0;0.7;4.393000000000004;52.83100000000004;1.5;0.44444444444444464;0.25;0.16000000000000003;0.1111111111111111;0.0816326530612245;0.0625;0.0493827160493827;0.0;0.0;0.15000000000000002;0.04444444444444447;0.03125;0.02285714285714286;0.018518518518518517;0.0163265306122449;0.015625;0.016460905349794233;0.0;0.0;0.31548254178214497;9.0;5.0;0.8;0.4444444444444444;198.81229641017202;4.321928094887362;10.0;3.713572066704308;4.343805421853684;5.030437921392435;5.680172609017068;6.371611847231857;7.029087564149662;7.721791776817535;8.38320455141292;9.076008659180891;78.34969241776035;3.044522437723423;4.110873864173311;5.303304908059076;6.55250788703459;7.83241092718792;37.84362002417832;156.187800768;4.462508593371428;212.0;8.0;40.0;38.0;4.861111111111111;2.8333333333333335