boiling_point;SMILES;IUPAC_name;InChIKey;SpAbs_A;SpMax_A;SpDiam_A;SpAD_A;SpMAD_A;LogEE_A;VE1_A;VE2_A;VE3_A;VR1_A;VR2_A;VR3_A;nAtom;nHeavyAtom;nH;nC;ATS0dv;ATS1dv;ATS2dv;ATS3dv;ATS4dv;ATS5dv;ATS6dv;ATS7dv;ATS8dv;ATS0d;ATS1d;ATS2d;ATS3d;ATS4d;ATS5d;ATS6d;ATS7d;ATS8d;ATS0s;ATS1s;ATS2s;ATS3s;ATS4s;ATS5s;ATS6s;ATS7s;ATS8s;ATS0Z;ATS1Z;ATS2Z;ATS3Z;ATS4Z;ATS5Z;ATS6Z;ATS7Z;ATS8Z;ATS0m;ATS1m;ATS2m;ATS3m;ATS4m;ATS5m;ATS6m;ATS7m;ATS8m;ATS0v;ATS1v;ATS2v;ATS3v;ATS4v;ATS5v;ATS6v;ATS7v;ATS8v;ATS0se;ATS1se;ATS2se;ATS3se;ATS4se;ATS5se;ATS6se;ATS7se;ATS8se;ATS0pe;ATS1pe;ATS2pe;ATS3pe;ATS4pe;ATS5pe;ATS6pe;ATS7pe;ATS8pe;ATS0are;ATS1are;ATS2are;ATS3are;ATS4are;ATS5are;ATS6are;ATS7are;ATS8are;ATS0p;ATS1p;ATS2p;ATS3p;ATS4p;ATS5p;ATS6p;ATS7p;ATS8p;ATS0i;ATS1i;ATS2i;ATS3i;ATS4i;ATS5i;ATS6i;ATS7i;ATS8i;AATS0dv;AATS1dv;AATS2dv;AATS3dv;AATS0d;AATS1d;AATS2d;AATS3d;AATS0s;AATS1s;AATS2s;AATS3s;AATS0Z;AATS1Z;AATS2Z;AATS3Z;AATS0m;AATS1m;AATS2m;AATS3m;AATS0v;AATS1v;AATS2v;AATS3v;AATS0se;AATS1se;AATS2se;AATS3se;AATS0pe;AATS1pe;AATS2pe;AATS3pe;AATS0are;AATS1are;AATS2are;AATS3are;AATS0p;AATS1p;AATS2p;AATS3p;AATS0i;AATS1i;AATS2i;AATS3i;ATSC0c;ATSC1c;ATSC2c;ATSC3c;ATSC4c;ATSC5c;ATSC6c;ATSC7c;ATSC8c;ATSC0dv;ATSC1dv;ATSC2dv;ATSC3dv;ATSC4dv;ATSC5dv;ATSC6dv;ATSC7dv;ATSC8dv;ATSC0d;ATSC1d;ATSC2d;ATSC3d;ATSC4d;ATSC5d;ATSC6d;ATSC7d;ATSC8d;ATSC0s;ATSC1s;ATSC2s;ATSC3s;ATSC4s;ATSC5s;ATSC6s;ATSC7s;ATSC8s;ATSC0Z;ATSC1Z;ATSC2Z;ATSC3Z;ATSC4Z;ATSC5Z;ATSC6Z;ATSC7Z;ATSC8Z;ATSC0m;ATSC1m;ATSC2m;ATSC3m;ATSC4m;ATSC5m;ATSC6m;ATSC7m;ATSC8m;ATSC0v;ATSC1v;ATSC2v;ATSC3v;ATSC4v;ATSC5v;ATSC6v;ATSC7v;ATSC8v;ATSC0se;ATSC1se;ATSC2se;ATSC3se;ATSC4se;ATSC5se;ATSC6se;ATSC7se;ATSC8se;ATSC0pe;ATSC1pe;ATSC2pe;ATSC3pe;ATSC4pe;ATSC5pe;ATSC6pe;ATSC7pe;ATSC8pe;ATSC0are;ATSC1are;ATSC2are;ATSC3are;ATSC4are;ATSC5are;ATSC6are;ATSC7are;ATSC8are;ATSC0p;ATSC1p;ATSC2p;ATSC3p;ATSC4p;ATSC5p;ATSC6p;ATSC7p;ATSC8p;ATSC0i;ATSC1i;ATSC2i;ATSC3i;ATSC4i;ATSC5i;ATSC6i;ATSC7i;ATSC8i;AATSC0c;AATSC1c;AATSC2c;AATSC3c;AATSC0dv;AATSC1dv;AATSC2dv;AATSC3dv;AATSC0d;AATSC1d;AATSC2d;AATSC3d;AATSC0s;AATSC1s;AATSC2s;AATSC3s;AATSC0Z;AATSC1Z;AATSC2Z;AATSC3Z;AATSC0m;AATSC1m;AATSC2m;AATSC3m;AATSC0v;AATSC1v;AATSC2v;AATSC3v;AATSC0se;AATSC1se;AATSC2se;AATSC3se;AATSC0pe;AATSC1pe;AATSC2pe;AATSC3pe;AATSC0are;AATSC1are;AATSC2are;AATSC3are;AATSC0p;AATSC1p;AATSC2p;AATSC3p;AATSC0i;AATSC1i;AATSC2i;AATSC3i;MATS1c;MATS2c;MATS3c;MATS1dv;MATS2dv;MATS3dv;MATS1s;MATS2s;MATS3s;MATS1Z;MATS2Z;MATS3Z;MATS1m;MATS2m;MATS3m;MATS1v;MATS2v;MATS3v;MATS1se;MATS2se;MATS3se;MATS1pe;MATS2pe;MATS3pe;MATS1are;MATS2are;MATS3are;MATS1p;MATS2p;MATS3p;MATS1i;MATS2i;MATS3i;GATS1c;GATS2c;GATS3c;GATS1dv;GATS2dv;GATS3dv;GATS1s;GATS2s;GATS3s;GATS1Z;GATS2Z;GATS3Z;GATS1m;GATS2m;GATS3m;GATS1v;GATS2v;GATS3v;GATS1se;GATS2se;GATS3se;GATS1pe;GATS2pe;GATS3pe;GATS1are;GATS2are;GATS3are;GATS1p;GATS2p;GATS3p;GATS1i;GATS2i;GATS3i;BCUTc-1h;BCUTc-1l;BCUTdv-1h;BCUTdv-1l;BCUTd-1h;BCUTd-1l;BCUTs-1h;BCUTs-1l;BCUTZ-1h;BCUTZ-1l;BCUTm-1h;BCUTm-1l;BCUTv-1h;BCUTv-1l;BCUTse-1h;BCUTse-1l;BCUTpe-1h;BCUTpe-1l;BCUTare-1h;BCUTare-1l;BCUTp-1h;BCUTp-1l;BCUTi-1h;BCUTi-1l;BalabanJ;SpAbs_DzZ;SpMax_DzZ;SpDiam_DzZ;SpAD_DzZ;SpMAD_DzZ;LogEE_DzZ;VE1_DzZ;VE2_DzZ;VE3_DzZ;VR1_DzZ;VR2_DzZ;VR3_DzZ;SpAbs_Dzm;SpMax_Dzm;SpDiam_Dzm;SpAD_Dzm;SpMAD_Dzm;LogEE_Dzm;VE1_Dzm;VE2_Dzm;VE3_Dzm;VR1_Dzm;VR2_Dzm;VR3_Dzm;SpAbs_Dzv;SpMax_Dzv;SpDiam_Dzv;SpAD_Dzv;SpMAD_Dzv;LogEE_Dzv;VE1_Dzv;VE2_Dzv;VE3_Dzv;VR1_Dzv;VR2_Dzv;VR3_Dzv;SpAbs_Dzse;SpMax_Dzse;SpDiam_Dzse;SpAD_Dzse;SpMAD_Dzse;LogEE_Dzse;VE1_Dzse;VE2_Dzse;VE3_Dzse;VR1_Dzse;VR2_Dzse;VR3_Dzse;SpAbs_Dzpe;SpMax_Dzpe;SpDiam_Dzpe;SpAD_Dzpe;SpMAD_Dzpe;LogEE_Dzpe;VE1_Dzpe;VE2_Dzpe;VE3_Dzpe;VR1_Dzpe;VR2_Dzpe;VR3_Dzpe;SpAbs_Dzare;SpMax_Dzare;SpDiam_Dzare;SpAD_Dzare;SpMAD_Dzare;LogEE_Dzare;VE1_Dzare;VE2_Dzare;VE3_Dzare;VR1_Dzare;VR2_Dzare;VR3_Dzare;SpAbs_Dzp;SpMax_Dzp;SpDiam_Dzp;SpAD_Dzp;SpMAD_Dzp;LogEE_Dzp;VE1_Dzp;VE2_Dzp;VE3_Dzp;VR1_Dzp;VR2_Dzp;VR3_Dzp;SpAbs_Dzi;SpMax_Dzi;SpDiam_Dzi;SpAD_Dzi;SpMAD_Dzi;LogEE_Dzi;VE1_Dzi;VE2_Dzi;VE3_Dzi;VR1_Dzi;VR2_Dzi;VR3_Dzi;BertzCT;nBonds;nBondsO;nBondsS;nBondsKS;RNCG;RPCG;C1SP3;C2SP3;C3SP3;C4SP3;Xc-3d;Xc-4d;Xc-5d;Xc-6d;Xc-3dv;Xc-4dv;Xc-5dv;Xc-6dv;Xpc-4d;Xpc-5d;Xpc-6d;Xpc-4dv;Xpc-5dv;Xpc-6dv;Xp-0d;Xp-1d;Xp-2d;Xp-3d;Xp-4d;Xp-5d;Xp-6d;Xp-7d;AXp-0d;AXp-1d;Xp-0dv;Xp-1dv;Xp-2dv;Xp-3dv;Xp-4dv;Xp-5dv;Xp-6dv;Xp-7dv;AXp-0dv;AXp-1dv;SZ;Sm;Sv;Sse;Spe;Sare;Sp;Si;MZ;Mm;Mv;Mse;Mpe;Mare;Mp;Mi;SpAbs_D;SpMax_D;SpDiam_D;SpAD_D;SpMAD_D;LogEE_D;VE1_D;VE2_D;VE3_D;VR1_D;VR2_D;VR3_D;NsCH3;NssCH2;NsssCH;NssssC;SsCH3;SssCH2;SsssCH;SssssC;MAXsCH3;MINsCH3;ECIndex;ETA_alpha;ETA_shape_p;ETA_shape_y;ETA_shape_x;ETA_beta;AETA_beta;ETA_beta_s;AETA_beta_s;ETA_eta;AETA_eta;ETA_eta_L;AETA_eta_L;ETA_eta_R;AETA_eta_R;ETA_eta_RL;AETA_eta_RL;ETA_eta_B;AETA_eta_B;ETA_eta_BR;AETA_eta_BR;ETA_epsilon_1;ETA_epsilon_2;ETA_epsilon_3;ETA_epsilon_4;ETA_epsilon_5;ETA_dBeta;AETA_dBeta;ETA_psi_1;ETA_dPsi_B;fragCpx;IC0;IC1;IC2;IC3;IC4;IC5;TIC0;TIC1;TIC2;TIC3;TIC4;TIC5;SIC0;SIC1;SIC2;SIC3;SIC4;SIC5;BIC0;BIC1;BIC2;BIC3;BIC4;BIC5;CIC0;CIC1;CIC2;CIC3;CIC4;CIC5;MIC0;MIC1;MIC2;MIC3;MIC4;MIC5;ZMIC0;ZMIC1;ZMIC2;ZMIC3;ZMIC4;ZMIC5;Kier1;Lipinski;GhoseFilter;FilterItLogS;VMcGowan;LabuteASA;PEOE_VSA6;PEOE_VSA7;SMR_VSA4;SMR_VSA5;SlogP_VSA4;SlogP_VSA5;EState_VSA3;EState_VSA4;EState_VSA5;EState_VSA7;EState_VSA8;VSA_EState4;VSA_EState5;VSA_EState7;VSA_EState8;MDEC-11;MID;AMID;MID_C;AMID_C;MPC2;MPC3;MPC4;MPC5;MPC6;MPC7;MPC8;MPC9;MPC10;TMPC10;piPC1;piPC2;piPC3;piPC4;piPC5;piPC6;piPC7;piPC8;piPC9;piPC10;TpiPC10;apol;bpol;nRot;RotRatio;SLogP;SMR;GGI1;GGI2;GGI3;GGI4;GGI5;GGI6;GGI7;GGI8;GGI9;GGI10;JGI1;JGI2;JGI3;JGI4;JGI5;JGI6;JGI7;JGI8;JGI9;JGI10;JGT10;Diameter;Radius;TopoShapeIndex;PetitjeanIndex;Vabc;VAdjMat;MWC01;MWC02;MWC03;MWC04;MWC05;MWC06;MWC07;MWC08;MWC09;MWC10;TMWC10;SRW02;SRW04;SRW06;SRW08;SRW10;TSRW10;MW;AMW;WPath;WPol;Zagreb1;Zagreb2;mZagreb1;mZagreb2
160.0;CC(C)CCCCC(C)C;2,7-dimethyloctane;KEVMYFLMMDUPJE-UHFFFAOYSA-N;10.987918414869869;2.0000000000000004;4.000000000000001;10.987918414869869;1.0987918414869868;3.123214466942798;3.0237157840738176;0.30237157840738177;1.1064864671521792;28.19538610241872;2.819538610241872;3.33915835116853;32.0;10.0;22.0;10.0;38.0;36.0;30.0;24.0;20.0;17.0;12.0;4.0;0.0;60.0;70.0;126.0;128.0;130.0;97.0;78.0;69.0;36.0;50.55555555555556;60.08333333333333;94.83333333333333;124.58333333333331;118.33333333333333;88.11111111111111;75.33333333333333;65.0;60.0;382.0;456.0;580.0;556.0;450.0;368.0;304.0;265.0;156.0;1464.9946180000002;1564.733025;1870.5392259999999;1595.224687;1283.6648219999997;1068.6189409999997;871.8622119999998;796.1714919999998;302.76288;4919.011394973762;6335.857675895377;8633.553884985813;9112.847509355212;7661.722100881771;6095.416356169901;5088.618011214776;4306.9470796988735;3126.6837260636103;223.21136800000002;224.452548;424.90007199999997;568.311676;621.569112;437.75185999999997;374.86696;312.00577599999997;251.44473599999998;171.505;181.9425;333.205;439.09749999999997;468.675;333.2525;284.95;236.77;192.72000000000003;168.98000000000002;177.25;326.94000000000005;432.27;463.86;329.13;281.52;234.0;190.08;37.670483906678;49.59807482;72.863313017584;83.194499595772;74.14882616184602;57.124265015168;48.102736155772;40.087631581225;32.060418298188;5336.131905433478;4509.8452544938;9432.792615526585;13108.891944102372;15339.995777236449;10532.52288576137;9053.567730722772;7580.079488372625;5893.952969400589;1.1875;1.1612903225806452;0.5;0.2962962962962963;1.875;2.2580645161290325;2.1;1.5802469135802468;1.5798611111111112;1.9381720430107525;1.5805555555555555;1.538065843621399;11.9375;14.709677419354838;9.666666666666666;6.864197530864198;45.781081812500005;50.47525887096774;31.175653766666663;19.694131938271603;153.71910609293008;204.3825056740444;143.89256474976355;112.50429023895323;6.975355250000001;7.240404774193548;7.081667866666666;7.016193530864198;5.35953125;5.8691129032258065;5.553416666666666;5.420956790123457;5.280625000000001;5.717741935483871;5.449000000000001;5.336666666666666;1.1772026220836875;1.5999378974193548;1.2143885502930667;1.0270925876021235;166.7541220447962;145.47887917721934;157.21321025877643;161.838172149412;0.04505597135181265;-0.0066404410975080715;-0.005069901483950963;-0.023647369602966005;0.009975725472094223;-0.0003294505644315434;-0.0006265374028446638;0.011060235751560538;-0.026807272261204926;27.875;5.30859375;-15.140625;-7.74609375;4.6015625;-0.19140625;-1.2890625;-8.76171875;-2.109375;10.0;0.9375;-5.25;-0.4375;0.625;0.4375;-2.625;-3.1875;2.25;3.8333333333333335;-1.7934027777777772;1.1875000000000004;-2.442708333333333;0.822916666666666;0.05381944444444425;-0.4895833333333337;2.619791666666667;-3.437499999999999;171.875;-11.81640625;-25.390625;-95.99609375;41.6015625;-2.44140625;-2.5390625;22.36328125;-99.609375;832.3288118749999;-57.222605816406116;-122.95766539062484;-464.8745579960936;201.46140560156238;-11.822852441406283;-12.295766539062527;108.2973283632812;-482.3723796093749;1547.7509673946556;-106.40787900838225;-228.6450292742102;-864.454091448265;374.6260864262062;-21.985098968674123;-22.864502927421086;201.3835065530546;-896.9920379219028;0.1630474999999998;-0.011209515625000697;-0.024086562500000536;-0.09106573437500022;0.039464906250000445;-0.002316015624999876;-0.00240865624999987;0.02121470312500012;-0.09449343749999994;0.8421874999999983;-0.057900390625000686;-0.1244140625000004;-0.4703808593749994;0.20384765625000012;-0.011962890624999861;-0.012441406249999842;0.10958007812499992;-0.48808593749999907;0.6187499999999992;-0.042539062500000294;-0.09140625000000019;-0.3455859374999997;0.14976562500000004;-0.008789062499999917;-0.009140624999999937;0.08050781249999997;-0.3585937499999996;6.919166958336874;-0.475692728385663;-1.022149664299768;-3.8645120000256536;1.6747529115065412;-0.09828362156728443;-0.10221496642997596;0.9002779735563327;-4.009971759945234;37.58502473308684;-2.5839704503997742;-5.552333199206053;-20.992090518536592;9.09728439562219;-0.5338781922313389;-0.5552333199205912;4.89032424083915;-21.782230243038967;0.0014079991047441453;-0.00021420777733897005;-8.44983580658494e-05;-0.0002919428346045186;0.87109375;0.17124495967741934;-0.25234375;-0.09563078703703703;0.3125;0.03024193548387097;-0.0875;-0.005401234567901234;0.11979166666666667;-0.05785170250896056;0.019791666666666673;-0.030156893004115223;5.37109375;-0.3811743951612903;-0.4231770833333333;-1.185136959876543;26.010275371093748;-1.845890510206649;-2.0492944231770807;-5.739192074025847;48.36721773108299;-3.432512226076847;-3.8107504879035035;-10.672272733929198;0.005095234374999993;-0.00036159727822582895;-0.0004014427083333423;-0.0011242683256172867;0.026318359374999947;-0.0018677545362903447;-0.00207356770833334;-0.0058071711033950545;0.019335937499999976;-0.0013722278225806546;-0.001523437500000003;-0.004266493055555552;0.2162239674480273;-0.015344926722118162;-0.017035827738329467;-0.047710024691674735;1.1745320229089637;-0.08335388549676691;-0.09253888665343422;-0.2591616113399579;-0.1521363022300322;-0.06001307655746274;-0.2073458950512394;0.19658614205120786;-0.2896860986547085;-0.10978242816807839;-0.482935951379149;0.16521739130434787;-0.25174449812130967;-0.07096774193548387;-0.07878787878787878;-0.2206509539842873;-0.07096774193548372;-0.0787878787878787;-0.22065095398428727;-0.07096774193548366;-0.07878787878787868;-0.2206509539842873;-0.07096774193548838;-0.07878787878788064;-0.22065095398428813;-0.07096774193548486;-0.0787878787878792;-0.2206509539842875;-0.07096774193548444;-0.07878787878787905;-0.2206509539842874;-0.07096774193548432;-0.07878787878787899;-0.22065095398428744;-0.07096774193548536;-0.07878787878787939;-0.22065095398428752;1.6804629180520263;1.172197447995136;1.2980386570338092;1.4349775784753362;1.946188340807175;1.029729280850357;2.094202898550725;0.6963768115942027;1.3478260869565217;1.6;1.2775757575757576;1.2803591470258138;1.6000000000000003;1.277575757575758;1.280359147025814;1.6000000000000005;1.2775757575757578;1.280359147025814;1.6;1.2775757575757576;1.2803591470258138;1.6;1.2775757575757574;1.2803591470258135;1.6000000000000003;1.2775757575757578;1.2803591470258138;1.6;1.2775757575757578;1.280359147025814;1.5999999999999999;1.2775757575757571;1.2803591470258133;0.2095706365610985;-0.20928072962043398;3.023381374184985;0.9871313359805874;3.023381374184985;0.9871313359805874;2.0393355870610534;1.248101219148267;6.212767867144323;5.794657669148179;12.223767867144318;11.805657669148175;20.792294143259845;20.374183945263695;2.958767867144332;2.5406576691481826;2.762767867144325;2.3446576691481797;2.7127678671443287;2.2946576691481804;1.8827678671443278;1.4646576691481794;11.473067867144362;11.054957669148182;2.909471975439737;62.39689972431957;31.19844986215979;49.5841569630218;62.39689972431958;6.239689972431958;31.198449862159894;3.1175852899991865;0.3117585289999186;1.1370587566578625;30.92422327554177;3.092422327554177;3.4315398015699774;62.39689972431957;31.19844986215979;49.5841569630218;62.39689972431958;6.239689972431958;31.198449862159894;3.1175852899991865;0.3117585289999186;1.1370587566578625;30.92422327554177;3.092422327554177;3.4315398015699774;62.39689972431957;31.19844986215979;49.5841569630218;62.39689972431958;6.239689972431958;31.198449862159894;3.1175852899991865;0.3117585289999186;1.1370587566578625;30.92422327554177;3.092422327554177;3.4315398015699774;62.39689972431957;31.19844986215979;49.5841569630218;62.39689972431958;6.239689972431958;31.198449862159894;3.1175852899991865;0.3117585289999186;1.1370587566578625;30.92422327554177;3.092422327554177;3.4315398015699774;62.39689972431957;31.19844986215979;49.5841569630218;62.39689972431958;6.239689972431958;31.198449862159894;3.1175852899991865;0.3117585289999186;1.1370587566578625;30.92422327554177;3.092422327554177;3.4315398015699774;62.39689972431957;31.19844986215979;49.5841569630218;62.39689972431958;6.239689972431958;31.198449862159894;3.1175852899991865;0.3117585289999186;1.1370587566578625;30.92422327554177;3.092422327554177;3.4315398015699774;62.39689972431957;31.19844986215979;49.5841569630218;62.39689972431958;6.239689972431958;31.198449862159894;3.1175852899991865;0.3117585289999186;1.1370587566578625;30.92422327554177;3.092422327554177;3.4315398015699774;62.39689972431957;31.19844986215979;49.5841569630218;62.39689972431958;6.239689972431958;31.198449862159894;3.1175852899991865;0.3117585289999186;1.1370587566578625;30.92422327554177;3.092422327554177;3.4315398015699774;52.43856189774725;31.0;9.0;31.0;31.0;0.11342988150703096;0.053670247335511526;4.0;4.0;2.0;0.0;0.816496580927726;0.0;0.0;0.0;0.816496580927726;0.0;0.0;0.0;0.5773502691896257;0.408248290463863;0.28867513459481287;0.5773502691896257;0.408248290463863;0.28867513459481287;7.983127663125442;4.625897657686229;4.072150750610877;1.8129488288431146;1.105171715522539;0.6606836025229591;0.3333333333333333;0.3333333333333333;0.7983127663125442;0.5139886286318033;7.983127663125442;4.625897657686229;4.072150750610877;1.8129488288431146;1.105171715522539;0.6606836025229591;0.3333333333333333;0.3333333333333333;0.7983127663125442;0.5139886286318033;13.666666666666668;11.846307551411208;15.96010584164462;30.766205389657685;28.98039215686275;29.360000000000003;18.784099401197608;36.568186105165935;0.42708333333333337;0.37019711098160024;0.49875330755139435;0.9614439184268027;0.9056372549019609;0.9175000000000001;0.5870031062874252;1.1427558157864355;62.39689972431957;31.19844986215979;49.5841569630218;62.39689972431958;6.239689972431958;31.198449862159894;3.1175852899991865;0.3117585289999186;1.1370587566578625;30.92422327554177;3.092422327554177;3.4315398015699774;4.0;4.0;2.0;0.0;9.203866213151928;5.671759259259259;1.7910411942554796;0.0;2.300966553287982;2.300966553287982;100.0;5.0;0.4;0.2;0.0;4.5;0.45;4.5;0.45;11.829912514670532;1.1829912514670533;4.625897657686229;0.46258976576862293;11.829912514670532;1.1829912514670533;4.625897657686229;0.46258976576862293;0.28831590468686574;0.028831590468686573;0.28831590468686574;0.028831590468686573;0.425;0.7;0.425;0.425;0.7;-4.5;-0.45;0.7142857142857143;0.00028571428571433355;9.0;0.8960382325345574;1.3716407621868583;2.4056390622295662;2.6556390622295662;2.6556390622295662;2.6556390622295662;28.673223441105836;43.892504389979464;76.98044999134612;84.98044999134612;84.98044999134612;84.98044999134612;0.17920764650691148;0.27432815243737163;0.48112781244591324;0.5311278124459132;0.5311278124459132;0.5311278124459132;0.1808644987797396;0.2768644349661926;0.48557604735725723;0.5360383190027822;0.5360383190027822;0.5360383190027822;4.103961767465442;3.6283592378131417;2.5943609377704338;2.3443609377704338;2.3443609377704338;2.3443609377704338;6.673151904630568;12.385613888284354;14.803259174727401;15.055259174727402;15.055259174727402;15.055259174727402;39.639944988972836;29.17609676811088;28.8676687467548;27.8676687467548;27.8676687467548;27.8676687467548;10.0;1.0;0.0;-3.119502638111995;151.76000000000002;66.02373005739902;53.378235290466534;11.835812092322787;11.835812092322787;53.378235290466534;11.835812092322787;53.378235290466534;0.0;11.835812092322787;25.683286491704038;0.0;27.694948798762496;0.0;1.7910411942554796;5.671759259259259;9.203866213151928;1.3013952736609982;18.496489419174605;1.8496489419174604;18.496489419174605;1.8496489419174604;10.0;7.0;6.0;5.0;4.0;4.0;0.0;0.0;0.0;55.0;2.302585092994046;2.3978952727983707;2.0794415416798357;1.9459101490553132;1.791759469228055;1.6094379124341003;1.6094379124341003;0.0;0.0;0.0;4.02535169073515;31.369446;22.070553999999998;5.0;0.5555555555555556;3.858800000000003;48.14400000000003;2.5;0.666666666666667;0.375;0.24000000000000005;0.1111111111111111;0.16326530612244897;0.0;0.0;0.0;0.0;0.2777777777777778;0.06666666666666671;0.05357142857142856;0.04000000000000001;0.02222222222222222;0.04081632653061224;0.0;0.0;0.0;0.0;0.5010544217687075;7.0;4.0;0.75;0.42857142857142855;181.5163111863147;4.169925001442312;9.0;3.6635616461296463;4.290459441148391;5.017279836814924;5.666426688112432;6.391917113392602;7.051855622955894;7.772752716468742;8.439663988907;9.1557785839835;76.44969563791314;2.9444389791664403;4.07753744390572;5.3230099791384085;6.616065185132817;7.933438387627489;36.894489974970874;142.172150704;4.4428797095;151.0;7.0;38.0;36.0;5.222222222222222;2.416666666666667