boiling_point;SMILES;IUPAC_name;InChIKey;SpAbs_A;SpMax_A;SpDiam_A;SpAD_A;SpMAD_A;LogEE_A;VE1_A;VE2_A;VE3_A;VR1_A;VR2_A;VR3_A;nAtom;nHeavyAtom;nH;nC;ATS0dv;ATS1dv;ATS2dv;ATS3dv;ATS4dv;ATS5dv;ATS6dv;ATS7dv;ATS8dv;ATS0d;ATS1d;ATS2d;ATS3d;ATS4d;ATS5d;ATS6d;ATS7d;ATS8d;ATS0s;ATS1s;ATS2s;ATS3s;ATS4s;ATS5s;ATS6s;ATS7s;ATS8s;ATS0Z;ATS1Z;ATS2Z;ATS3Z;ATS4Z;ATS5Z;ATS6Z;ATS7Z;ATS8Z;ATS0m;ATS1m;ATS2m;ATS3m;ATS4m;ATS5m;ATS6m;ATS7m;ATS8m;ATS0v;ATS1v;ATS2v;ATS3v;ATS4v;ATS5v;ATS6v;ATS7v;ATS8v;ATS0se;ATS1se;ATS2se;ATS3se;ATS4se;ATS5se;ATS6se;ATS7se;ATS8se;ATS0pe;ATS1pe;ATS2pe;ATS3pe;ATS4pe;ATS5pe;ATS6pe;ATS7pe;ATS8pe;ATS0are;ATS1are;ATS2are;ATS3are;ATS4are;ATS5are;ATS6are;ATS7are;ATS8are;ATS0p;ATS1p;ATS2p;ATS3p;ATS4p;ATS5p;ATS6p;ATS7p;ATS8p;ATS0i;ATS1i;ATS2i;ATS3i;ATS4i;ATS5i;ATS6i;ATS7i;ATS8i;AATS0dv;AATS1dv;AATS2dv;AATS3dv;AATS0d;AATS1d;AATS2d;AATS3d;AATS0s;AATS1s;AATS2s;AATS3s;AATS0Z;AATS1Z;AATS2Z;AATS3Z;AATS0m;AATS1m;AATS2m;AATS3m;AATS0v;AATS1v;AATS2v;AATS3v;AATS0se;AATS1se;AATS2se;AATS3se;AATS0pe;AATS1pe;AATS2pe;AATS3pe;AATS0are;AATS1are;AATS2are;AATS3are;AATS0p;AATS1p;AATS2p;AATS3p;AATS0i;AATS1i;AATS2i;AATS3i;ATSC0c;ATSC1c;ATSC2c;ATSC3c;ATSC4c;ATSC5c;ATSC6c;ATSC7c;ATSC8c;ATSC0dv;ATSC1dv;ATSC2dv;ATSC3dv;ATSC4dv;ATSC5dv;ATSC6dv;ATSC7dv;ATSC8dv;ATSC0d;ATSC1d;ATSC2d;ATSC3d;ATSC4d;ATSC5d;ATSC6d;ATSC7d;ATSC8d;ATSC0s;ATSC1s;ATSC2s;ATSC3s;ATSC4s;ATSC5s;ATSC6s;ATSC7s;ATSC8s;ATSC0Z;ATSC1Z;ATSC2Z;ATSC3Z;ATSC4Z;ATSC5Z;ATSC6Z;ATSC7Z;ATSC8Z;ATSC0m;ATSC1m;ATSC2m;ATSC3m;ATSC4m;ATSC5m;ATSC6m;ATSC7m;ATSC8m;ATSC0v;ATSC1v;ATSC2v;ATSC3v;ATSC4v;ATSC5v;ATSC6v;ATSC7v;ATSC8v;ATSC0se;ATSC1se;ATSC2se;ATSC3se;ATSC4se;ATSC5se;ATSC6se;ATSC7se;ATSC8se;ATSC0pe;ATSC1pe;ATSC2pe;ATSC3pe;ATSC4pe;ATSC5pe;ATSC6pe;ATSC7pe;ATSC8pe;ATSC0are;ATSC1are;ATSC2are;ATSC3are;ATSC4are;ATSC5are;ATSC6are;ATSC7are;ATSC8are;ATSC0p;ATSC1p;ATSC2p;ATSC3p;ATSC4p;ATSC5p;ATSC6p;ATSC7p;ATSC8p;ATSC0i;ATSC1i;ATSC2i;ATSC3i;ATSC4i;ATSC5i;ATSC6i;ATSC7i;ATSC8i;AATSC0c;AATSC1c;AATSC2c;AATSC3c;AATSC0dv;AATSC1dv;AATSC2dv;AATSC3dv;AATSC0d;AATSC1d;AATSC2d;AATSC3d;AATSC0s;AATSC1s;AATSC2s;AATSC3s;AATSC0Z;AATSC1Z;AATSC2Z;AATSC3Z;AATSC0m;AATSC1m;AATSC2m;AATSC3m;AATSC0v;AATSC1v;AATSC2v;AATSC3v;AATSC0se;AATSC1se;AATSC2se;AATSC3se;AATSC0pe;AATSC1pe;AATSC2pe;AATSC3pe;AATSC0are;AATSC1are;AATSC2are;AATSC3are;AATSC0p;AATSC1p;AATSC2p;AATSC3p;AATSC0i;AATSC1i;AATSC2i;AATSC3i;MATS1c;MATS2c;MATS3c;MATS1dv;MATS2dv;MATS3dv;MATS1s;MATS2s;MATS3s;MATS1Z;MATS2Z;MATS3Z;MATS1m;MATS2m;MATS3m;MATS1v;MATS2v;MATS3v;MATS1se;MATS2se;MATS3se;MATS1pe;MATS2pe;MATS3pe;MATS1are;MATS2are;MATS3are;MATS1p;MATS2p;MATS3p;MATS1i;MATS2i;MATS3i;GATS1c;GATS2c;GATS3c;GATS1dv;GATS2dv;GATS3dv;GATS1s;GATS2s;GATS3s;GATS1Z;GATS2Z;GATS3Z;GATS1m;GATS2m;GATS3m;GATS1v;GATS2v;GATS3v;GATS1se;GATS2se;GATS3se;GATS1pe;GATS2pe;GATS3pe;GATS1are;GATS2are;GATS3are;GATS1p;GATS2p;GATS3p;GATS1i;GATS2i;GATS3i;BCUTc-1h;BCUTc-1l;BCUTdv-1h;BCUTdv-1l;BCUTd-1h;BCUTd-1l;BCUTs-1h;BCUTs-1l;BCUTZ-1h;BCUTZ-1l;BCUTm-1h;BCUTm-1l;BCUTv-1h;BCUTv-1l;BCUTse-1h;BCUTse-1l;BCUTpe-1h;BCUTpe-1l;BCUTare-1h;BCUTare-1l;BCUTp-1h;BCUTp-1l;BCUTi-1h;BCUTi-1l;BalabanJ;SpAbs_DzZ;SpMax_DzZ;SpDiam_DzZ;SpAD_DzZ;SpMAD_DzZ;LogEE_DzZ;VE1_DzZ;VE2_DzZ;VE3_DzZ;VR1_DzZ;VR2_DzZ;VR3_DzZ;SpAbs_Dzm;SpMax_Dzm;SpDiam_Dzm;SpAD_Dzm;SpMAD_Dzm;LogEE_Dzm;VE1_Dzm;VE2_Dzm;VE3_Dzm;VR1_Dzm;VR2_Dzm;VR3_Dzm;SpAbs_Dzv;SpMax_Dzv;SpDiam_Dzv;SpAD_Dzv;SpMAD_Dzv;LogEE_Dzv;VE1_Dzv;VE2_Dzv;VE3_Dzv;VR1_Dzv;VR2_Dzv;VR3_Dzv;SpAbs_Dzse;SpMax_Dzse;SpDiam_Dzse;SpAD_Dzse;SpMAD_Dzse;LogEE_Dzse;VE1_Dzse;VE2_Dzse;VE3_Dzse;VR1_Dzse;VR2_Dzse;VR3_Dzse;SpAbs_Dzpe;SpMax_Dzpe;SpDiam_Dzpe;SpAD_Dzpe;SpMAD_Dzpe;LogEE_Dzpe;VE1_Dzpe;VE2_Dzpe;VE3_Dzpe;VR1_Dzpe;VR2_Dzpe;VR3_Dzpe;SpAbs_Dzare;SpMax_Dzare;SpDiam_Dzare;SpAD_Dzare;SpMAD_Dzare;LogEE_Dzare;VE1_Dzare;VE2_Dzare;VE3_Dzare;VR1_Dzare;VR2_Dzare;VR3_Dzare;SpAbs_Dzp;SpMax_Dzp;SpDiam_Dzp;SpAD_Dzp;SpMAD_Dzp;LogEE_Dzp;VE1_Dzp;VE2_Dzp;VE3_Dzp;VR1_Dzp;VR2_Dzp;VR3_Dzp;SpAbs_Dzi;SpMax_Dzi;SpDiam_Dzi;SpAD_Dzi;SpMAD_Dzi;LogEE_Dzi;VE1_Dzi;VE2_Dzi;VE3_Dzi;VR1_Dzi;VR2_Dzi;VR3_Dzi;BertzCT;nBonds;nBondsO;nBondsS;nBondsKS;RNCG;RPCG;C1SP3;C2SP3;C3SP3;C4SP3;Xc-3d;Xc-4d;Xc-5d;Xc-6d;Xc-3dv;Xc-4dv;Xc-5dv;Xc-6dv;Xpc-4d;Xpc-5d;Xpc-6d;Xpc-4dv;Xpc-5dv;Xpc-6dv;Xp-0d;Xp-1d;Xp-2d;Xp-3d;Xp-4d;Xp-5d;Xp-6d;Xp-7d;AXp-0d;AXp-1d;Xp-0dv;Xp-1dv;Xp-2dv;Xp-3dv;Xp-4dv;Xp-5dv;Xp-6dv;Xp-7dv;AXp-0dv;AXp-1dv;SZ;Sm;Sv;Sse;Spe;Sare;Sp;Si;MZ;Mm;Mv;Mse;Mpe;Mare;Mp;Mi;SpAbs_D;SpMax_D;SpDiam_D;SpAD_D;SpMAD_D;LogEE_D;VE1_D;VE2_D;VE3_D;VR1_D;VR2_D;VR3_D;NsCH3;NssCH2;NsssCH;NssssC;SsCH3;SssCH2;SsssCH;SssssC;MAXsCH3;MINsCH3;ECIndex;ETA_alpha;ETA_shape_p;ETA_shape_y;ETA_shape_x;ETA_beta;AETA_beta;ETA_beta_s;AETA_beta_s;ETA_eta;AETA_eta;ETA_eta_L;AETA_eta_L;ETA_eta_R;AETA_eta_R;ETA_eta_RL;AETA_eta_RL;ETA_eta_B;AETA_eta_B;ETA_eta_BR;AETA_eta_BR;ETA_epsilon_1;ETA_epsilon_2;ETA_epsilon_3;ETA_epsilon_4;ETA_epsilon_5;ETA_dBeta;AETA_dBeta;ETA_psi_1;ETA_dPsi_B;fragCpx;IC0;IC1;IC2;IC3;IC4;IC5;TIC0;TIC1;TIC2;TIC3;TIC4;TIC5;SIC0;SIC1;SIC2;SIC3;SIC4;SIC5;BIC0;BIC1;BIC2;BIC3;BIC4;BIC5;CIC0;CIC1;CIC2;CIC3;CIC4;CIC5;MIC0;MIC1;MIC2;MIC3;MIC4;MIC5;ZMIC0;ZMIC1;ZMIC2;ZMIC3;ZMIC4;ZMIC5;Kier1;Lipinski;GhoseFilter;FilterItLogS;VMcGowan;LabuteASA;PEOE_VSA6;PEOE_VSA7;SMR_VSA4;SMR_VSA5;SlogP_VSA4;SlogP_VSA5;EState_VSA3;EState_VSA4;EState_VSA5;EState_VSA7;EState_VSA8;VSA_EState4;VSA_EState5;VSA_EState7;VSA_EState8;MDEC-11;MID;AMID;MID_C;AMID_C;MPC2;MPC3;MPC4;MPC5;MPC6;MPC7;MPC8;MPC9;MPC10;TMPC10;piPC1;piPC2;piPC3;piPC4;piPC5;piPC6;piPC7;piPC8;piPC9;piPC10;TpiPC10;apol;bpol;nRot;RotRatio;SLogP;SMR;GGI1;GGI2;GGI3;GGI4;GGI5;GGI6;GGI7;GGI8;GGI9;GGI10;JGI1;JGI2;JGI3;JGI4;JGI5;JGI6;JGI7;JGI8;JGI9;JGI10;JGT10;Diameter;Radius;TopoShapeIndex;PetitjeanIndex;Vabc;VAdjMat;MWC01;MWC02;MWC03;MWC04;MWC05;MWC06;MWC07;MWC08;MWC09;MWC10;TMWC10;SRW02;SRW04;SRW06;SRW08;SRW10;TSRW10;MW;AMW;WPath;WPol;Zagreb1;Zagreb2;mZagreb1;mZagreb2
111.9;CCCC(C)(C)CC;3,3-dimethylhexane;KUMXLFIBWFCMOJ-UHFFFAOYSA-N;8.519258401726837;2.156639378509346;4.313278757018692;8.519258401726837;1.0649073002158547;2.912496854324031;2.552449407321271;0.3190561759151589;0.7139098987120605;21.69872386742944;2.71234048342868;2.854109899550388;26.0;8.0;18.0;8.0;32.0;32.0;27.0;16.0;6.0;1.0;0.0;0.0;0.0;50.0;56.0;106.0;106.0;105.0;69.0;36.0;9.0;0.0;42.3125;50.0;76.125;104.5;116.25;85.0;42.0;9.0;0.0;306.0;360.0;483.0;508.0;391.0;208.0;66.0;9.0;0.0;1172.4021199999997;1227.7764309999995;1604.1881609999998;1510.3893909999997;1032.3882279999998;451.26261699999986;103.12444799999999;9.144576;0.0;3947.6426137513827;5029.877406914644;7031.587075100369;8051.4228779609375;6931.713574124953;4191.07223913795;1620.9320311510196;279.75369987837234;0.0;181.25648000000004;180.90098799999998;339.46477200000004;444.9843159999999;561.0555039999999;432.86698;244.259712;60.466176;0.0;139.14000000000001;146.4975;265.7625;347.35749999999996;424.87;323.52250000000004;178.86;43.56000000000001;0.0;137.12;142.75;260.84999999999997;341.19;420.12;320.85;178.20000000000002;43.56000000000001;0.0;30.314232287281996;39.566097580000005;58.49435701273501;71.17787887758399;68.13446144850701;45.07139101396;20.019653005469998;4.001516143640999;0.0;4342.872585156481;3643.7663514622;7589.855130283335;9971.144833533985;13664.803083641309;10892.19648674376;6466.26484700487;1664.2588682182407;0.0;1.2307692307692308;1.28;0.5625;0.25396825396825395;1.9230769230769231;2.24;2.2083333333333335;1.6825396825396826;1.6274038461538463;2.0;1.5859375;1.6587301587301588;11.76923076923077;14.4;10.0625;8.063492063492063;45.09238923076922;49.11105723999998;33.4205866875;23.974434777777773;151.83240822120703;201.19509627658576;146.49139739792435;127.8003631422371;6.971403076923078;7.236039519999999;7.0721827500000005;7.06324311111111;5.351538461538462;5.8599;5.5367187499999995;5.513611111111111;5.273846153846154;5.71;5.434374999999999;5.4157142857142855;1.1659320110493074;1.5826439032000001;1.2186324377653126;1.129807601231492;167.03356096755698;145.750654058488;158.1219818809028;158.27214021482516;0.0358229951568197;-0.00833539952534929;0.005308305059495978;-0.01915116797557522;-0.004916366362914622;-0.0037457956746586992;0.008149073602007048;0.004779853298584961;0.0;24.461538461538467;9.094674556213022;-10.77514792899408;-17.426035502958577;-6.053254437869825;3.1124260355029563;7.2071005917159745;2.609467455621302;0.0;10.615384615384617;2.792899408284023;-5.9053254437869835;-5.337278106508876;-1.224852071005916;1.9704142011834338;1.9171597633136106;0.47928994082840265;0.0;3.5408653846153855;-1.8638128698224863;1.1649408284023668;-1.2120007396449715;-0.17058062130177498;-0.562962278106508;0.43380177514793017;0.4401812130177519;0.0;138.46153846153845;-11.982248520710048;15.53254437869823;-91.27218934911242;-31.36094674556214;-10.502958579881666;39.05325443786981;21.301775147928993;0.0;670.5194344615384;-58.02572028994064;75.21852630177531;-441.99838788757364;-151.86978643786995;-50.86205111834335;189.1208661301773;103.15683607100584;0.0;1246.8595205864642;-107.90130466613653;139.87206160425063;-821.9148762840261;-282.4083529533444;-94.58015594192179;351.67832631925927;191.82454162868683;0.0;0.13135015384615373;-0.011366840236685242;0.01473479289940912;-0.08658444970414088;-0.029750248520710558;-0.009963526627219929;0.03704747928993968;0.02020771597633096;0.0;0.6784615384615371;-0.05871301775148016;0.07610946745562043;-0.4472337278106509;-0.15366863905325365;-0.051464497041419116;0.19136094674556273;0.10437869822485218;0.0;0.49846153846153785;-0.043136094674557;0.05591715976331288;-0.32857988165680513;-0.11289940828402313;-0.037810650887573134;0.14059171597633202;0.07668639053254457;0.0;5.574042193009846;-0.48236903593354485;0.6252931947286681;-3.67434191569132;-1.2624967360235972;-0.422817303102242;1.572165746746367;0.8575449527707456;0.0;30.278285659102124;-2.6202362589608286;3.3966025579120447;-19.95908360220734;-6.85790230740344;-2.2967503010643098;8.540029288464769;4.658197793708041;0.0;0.001377807506031527;-0.0003334159810139716;0.00011058968873949954;-0.0003039867932630988;0.9408284023668642;0.36378698224852085;-0.22448224852071;-0.27660373814219963;0.4082840236686391;0.11171597633136092;-0.12302761341222883;-0.08471870010331549;0.13618713017751483;-0.07455251479289945;0.024269600591715974;-0.019238106978491612;5.325443786982248;-0.47928994082840193;0.3235946745562131;-1.4487649103033717;25.789209017751475;-2.3210288115976256;1.5670526312869857;-7.015847426786883;47.9561354071717;-4.316052186645461;2.914001283421888;-13.046267877524224;0.005051928994082836;-0.0004546736094674097;0.00030697485207102334;-0.0013743563445101727;0.026094674556212966;-0.0023485207100592065;0.0015856139053254256;-0.007098948060486522;0.01917159763313607;-0.00172544378698228;0.0011649408284023516;-0.005215553677092145;0.21438623819268637;-0.019294761437341795;0.01302694155684725;-0.05832288755065588;1.1645494484270047;-0.10480945035843314;0.07076255328983426;-0.31681085082868793;-0.2419902486772651;0.0802649776949096;-0.22063081521356073;0.3866666666666667;-0.2386006289308175;-0.2940001996605769;-0.5474270196877123;0.17820773930753558;-0.14126229808510876;-0.08999999999999991;0.0607638888888889;-0.2720458553791887;-0.08999999999999972;0.06076388888888903;-0.2720458553791886;-0.09000000000000016;0.06076388888888882;-0.27204585537918874;-0.08999999999999099;0.060763888888892385;-0.2720458553791854;-0.09000000000000151;0.06076388888888831;-0.27204585537918924;-0.09000000000000175;0.06076388888888817;-0.2720458553791894;-0.0900000000000001;0.06076388888888883;-0.2720458553791888;-0.09000000000000233;0.060763888888887944;-0.27204585537918957;1.7785055147446938;0.9627848689296806;1.342145919325194;1.3081761006289305;2.3634040880503138;1.4924628132175297;2.1534283774609637;0.6619144602851322;1.2537850623390336;1.625;1.1284722222222223;1.4329805996472664;1.6250000000000007;1.1284722222222223;1.4329805996472667;1.6249999999999998;1.128472222222222;1.4329805996472662;1.625;1.1284722222222219;1.432980599647266;1.6249999999999998;1.128472222222222;1.432980599647266;1.6250000000000002;1.1284722222222223;1.4329805996472667;1.6250000000000002;1.1284722222222225;1.4329805996472667;1.625;1.1284722222222225;1.4329805996472664;0.21898774753533984;-0.2367054919005181;4.017985049080279;0.9871326167037492;4.017985049080279;0.9871326167037492;2.0373056210897165;1.1590545421969531;6.22883215114269;5.775941906811446;12.23983215114269;11.786941906811435;20.808358427258206;20.35546818292696;2.974832151142687;2.521941906811441;2.778832151142684;2.3259419068114378;2.7288321511426856;2.275941906811439;1.898832151142691;1.4459419068114387;11.489132151142698;11.036241906811433;3.373381552563661;34.88529178748495;17.442645893742476;25.361634972434654;34.88529178748495;4.360661473435619;17.442645971473283;2.778929204032705;0.34736615050408814;0.798922123782578;22.748672017491177;2.843584002186397;2.9013632195214574;34.88529178748495;17.442645893742476;25.361634972434654;34.88529178748495;4.360661473435619;17.442645971473283;2.778929204032705;0.34736615050408814;0.798922123782578;22.748672017491177;2.843584002186397;2.9013632195214574;34.88529178748495;17.442645893742476;25.361634972434654;34.88529178748495;4.360661473435619;17.442645971473283;2.778929204032705;0.34736615050408814;0.798922123782578;22.748672017491177;2.843584002186397;2.9013632195214574;34.88529178748495;17.442645893742476;25.361634972434654;34.88529178748495;4.360661473435619;17.442645971473283;2.778929204032705;0.34736615050408814;0.798922123782578;22.748672017491177;2.843584002186397;2.9013632195214574;34.88529178748495;17.442645893742476;25.361634972434654;34.88529178748495;4.360661473435619;17.442645971473283;2.778929204032705;0.34736615050408814;0.798922123782578;22.748672017491177;2.843584002186397;2.9013632195214574;34.88529178748495;17.442645893742476;25.361634972434654;34.88529178748495;4.360661473435619;17.442645971473283;2.778929204032705;0.34736615050408814;0.798922123782578;22.748672017491177;2.843584002186397;2.9013632195214574;34.88529178748495;17.442645893742476;25.361634972434654;34.88529178748495;4.360661473435619;17.442645971473283;2.778929204032705;0.34736615050408814;0.798922123782578;22.748672017491177;2.843584002186397;2.9013632195214574;34.88529178748495;17.442645893742476;25.361634972434654;34.88529178748495;4.360661473435619;17.442645971473283;2.778929204032705;0.34736615050408814;0.798922123782578;22.748672017491177;2.843584002186397;2.9013632195214574;53.05865002596163;25.0;7.0;25.0;25.0;0.14827450261774855;0.06168189738353606;4.0;3.0;0.0;1.0;1.2071067811865475;0.25;0.0;0.0;1.2071067811865475;0.25;0.0;0.0;1.4571067811865475;1.3838834764831844;0.7071067811865476;1.4571067811865475;1.3838834764831844;0.7071067811865476;6.621320343559643;3.6213203435596424;3.2677669529663693;1.8838834764831844;0.8535533905932737;0.1767766952966369;0.0;0.0;0.8276650429449554;0.5173314776513774;6.621320343559643;3.6213203435596424;3.2677669529663693;1.8838834764831844;0.8535533905932737;0.1767766952966369;0.0;0.0;0.8276650429449554;0.5173314776513774;11.0;9.510615269336444;12.87645023407287;24.990531682447198;23.529411764705884;23.84;15.186990419161678;29.737606813317583;0.4230769230769231;0.36579289497447864;0.4952480859258796;0.9611742954787383;0.904977375565611;0.916923076923077;0.584115016121603;1.1437541082045224;34.88529178748495;17.442645893742476;25.361634972434654;34.88529178748495;4.360661473435619;17.442645971473283;2.778929204032705;0.34736615050408814;0.798922123782578;22.748672017491177;2.843584002186397;2.9013632195214574;4.0;3.0;0.0;1.0;9.166736111111112;3.99125;0.0;0.5920138888888888;2.329861111111111;2.2474305555555554;52.0;4.0;0.5;0.0;0.125;3.5;0.4375;3.5;0.4375;9.326524163602471;1.165815520450309;3.6213203435596424;0.4526650429449553;9.326524163602471;1.165815520450309;3.6213203435596424;0.4526650429449553;0.29289321881345254;0.03661165235168157;0.29289321881345254;0.03661165235168157;0.4230769230769231;0.7;0.4230769230769231;0.4230769230769231;0.7;-3.5;-0.4375;0.7142857142857143;0.00028571428571433355;7.0;0.8904916402194913;1.322995967059358;2.2954656791802917;3.199687794731328;3.4304570255005586;3.4304570255005586;23.152782645706775;34.39789514354331;59.682107658687585;83.19188266301452;89.19188266301452;89.19188266301452;0.1894485821789581;0.2814621708588937;0.4883512643127975;0.6807209509319536;0.7298161940596528;0.7298161940596528;0.19175693730143042;0.28489167471905225;0.4943016289424858;0.6890152631721669;0.7387087121806353;0.7387087121806353;3.8099480779216;3.3774437510817337;2.4049740389608;1.500751923409764;1.269982692640533;1.269982692640533;6.654519640635535;11.849329110309174;16.534579625754176;18.292420133614236;18.52503551822962;18.52503551822962;31.72521615294554;24.13720727697972;20.277598416990276;17.49023151386131;16.717978055647507;16.717978055647507;8.0;1.0;0.0;-2.634542200549686;123.58000000000004;53.293845828605804;40.53659204461451;11.83581209232279;5.41499046939678;46.95741366754052;5.41499046939678;46.95741366754052;5.41499046939678;0.0;19.26246486877803;0.0;27.694948798762496;0.5920138888888888;0.0;3.99125;9.166736111111112;1.7854903269264255;14.431060601229374;1.8038825751536718;14.431060601229374;1.8038825751536718;9.0;7.0;4.0;1.0;0.0;0.0;0.0;0.0;0.0;36.0;2.0794415416798357;2.302585092994046;2.0794415416798357;1.6094379124341003;0.6931471805599453;0.0;0.0;0.0;0.0;0.0;3.6109179126442243;25.362274;18.057726;3.0;0.42857142857142855;3.2227000000000023;38.98;3.0;1.1111111111111114;0.375;0.08000000000000002;0.0;0.0;0.0;0.0;0.0;0.0;0.4285714285714285;0.12345679012345684;0.05357142857142856;0.020000000000000004;0.0;0.0;0.0;0.0;0.0;0.0;0.6255996472663139;5.0;3.0;0.6666666666666666;0.4;146.92434073860016;3.807354922057604;7.0;3.4965075614664802;4.174387269895637;4.990432586778736;5.6937321388027;6.517671272912275;7.226209010100671;8.052296499538647;8.76201995356159;9.58870831219998;73.50196460525672;2.70805020110221;3.9318256327243257;5.3612921657094255;6.86171134048073;8.385944904806284;35.24882424482298;114.14085057599999;4.3900327144615385;67.0;7.0;32.0;32.0;4.8125;2.0