boiling_point;SMILES;IUPAC_name;InChIKey;SpAbs_A;SpMax_A;SpDiam_A;SpAD_A;SpMAD_A;LogEE_A;VE1_A;VE2_A;VE3_A;VR1_A;VR2_A;VR3_A;nAtom;nHeavyAtom;nH;nC;ATS0dv;ATS1dv;ATS2dv;ATS3dv;ATS4dv;ATS5dv;ATS6dv;ATS7dv;ATS8dv;ATS0d;ATS1d;ATS2d;ATS3d;ATS4d;ATS5d;ATS6d;ATS7d;ATS8d;ATS0s;ATS1s;ATS2s;ATS3s;ATS4s;ATS5s;ATS6s;ATS7s;ATS8s;ATS0Z;ATS1Z;ATS2Z;ATS3Z;ATS4Z;ATS5Z;ATS6Z;ATS7Z;ATS8Z;ATS0m;ATS1m;ATS2m;ATS3m;ATS4m;ATS5m;ATS6m;ATS7m;ATS8m;ATS0v;ATS1v;ATS2v;ATS3v;ATS4v;ATS5v;ATS6v;ATS7v;ATS8v;ATS0se;ATS1se;ATS2se;ATS3se;ATS4se;ATS5se;ATS6se;ATS7se;ATS8se;ATS0pe;ATS1pe;ATS2pe;ATS3pe;ATS4pe;ATS5pe;ATS6pe;ATS7pe;ATS8pe;ATS0are;ATS1are;ATS2are;ATS3are;ATS4are;ATS5are;ATS6are;ATS7are;ATS8are;ATS0p;ATS1p;ATS2p;ATS3p;ATS4p;ATS5p;ATS6p;ATS7p;ATS8p;ATS0i;ATS1i;ATS2i;ATS3i;ATS4i;ATS5i;ATS6i;ATS7i;ATS8i;AATS0dv;AATS1dv;AATS2dv;AATS3dv;AATS0d;AATS1d;AATS2d;AATS3d;AATS0s;AATS1s;AATS2s;AATS3s;AATS0Z;AATS1Z;AATS2Z;AATS3Z;AATS0m;AATS1m;AATS2m;AATS3m;AATS0v;AATS1v;AATS2v;AATS3v;AATS0se;AATS1se;AATS2se;AATS3se;AATS0pe;AATS1pe;AATS2pe;AATS3pe;AATS0are;AATS1are;AATS2are;AATS3are;AATS0p;AATS1p;AATS2p;AATS3p;AATS0i;AATS1i;AATS2i;AATS3i;ATSC0c;ATSC1c;ATSC2c;ATSC3c;ATSC4c;ATSC5c;ATSC6c;ATSC7c;ATSC8c;ATSC0dv;ATSC1dv;ATSC2dv;ATSC3dv;ATSC4dv;ATSC5dv;ATSC6dv;ATSC7dv;ATSC8dv;ATSC0d;ATSC1d;ATSC2d;ATSC3d;ATSC4d;ATSC5d;ATSC6d;ATSC7d;ATSC8d;ATSC0s;ATSC1s;ATSC2s;ATSC3s;ATSC4s;ATSC5s;ATSC6s;ATSC7s;ATSC8s;ATSC0Z;ATSC1Z;ATSC2Z;ATSC3Z;ATSC4Z;ATSC5Z;ATSC6Z;ATSC7Z;ATSC8Z;ATSC0m;ATSC1m;ATSC2m;ATSC3m;ATSC4m;ATSC5m;ATSC6m;ATSC7m;ATSC8m;ATSC0v;ATSC1v;ATSC2v;ATSC3v;ATSC4v;ATSC5v;ATSC6v;ATSC7v;ATSC8v;ATSC0se;ATSC1se;ATSC2se;ATSC3se;ATSC4se;ATSC5se;ATSC6se;ATSC7se;ATSC8se;ATSC0pe;ATSC1pe;ATSC2pe;ATSC3pe;ATSC4pe;ATSC5pe;ATSC6pe;ATSC7pe;ATSC8pe;ATSC0are;ATSC1are;ATSC2are;ATSC3are;ATSC4are;ATSC5are;ATSC6are;ATSC7are;ATSC8are;ATSC0p;ATSC1p;ATSC2p;ATSC3p;ATSC4p;ATSC5p;ATSC6p;ATSC7p;ATSC8p;ATSC0i;ATSC1i;ATSC2i;ATSC3i;ATSC4i;ATSC5i;ATSC6i;ATSC7i;ATSC8i;AATSC0c;AATSC1c;AATSC2c;AATSC3c;AATSC0dv;AATSC1dv;AATSC2dv;AATSC3dv;AATSC0d;AATSC1d;AATSC2d;AATSC3d;AATSC0s;AATSC1s;AATSC2s;AATSC3s;AATSC0Z;AATSC1Z;AATSC2Z;AATSC3Z;AATSC0m;AATSC1m;AATSC2m;AATSC3m;AATSC0v;AATSC1v;AATSC2v;AATSC3v;AATSC0se;AATSC1se;AATSC2se;AATSC3se;AATSC0pe;AATSC1pe;AATSC2pe;AATSC3pe;AATSC0are;AATSC1are;AATSC2are;AATSC3are;AATSC0p;AATSC1p;AATSC2p;AATSC3p;AATSC0i;AATSC1i;AATSC2i;AATSC3i;MATS1c;MATS2c;MATS3c;MATS1dv;MATS2dv;MATS3dv;MATS1s;MATS2s;MATS3s;MATS1Z;MATS2Z;MATS3Z;MATS1m;MATS2m;MATS3m;MATS1v;MATS2v;MATS3v;MATS1se;MATS2se;MATS3se;MATS1pe;MATS2pe;MATS3pe;MATS1are;MATS2are;MATS3are;MATS1p;MATS2p;MATS3p;MATS1i;MATS2i;MATS3i;GATS1c;GATS2c;GATS3c;GATS1dv;GATS2dv;GATS3dv;GATS1s;GATS2s;GATS3s;GATS1Z;GATS2Z;GATS3Z;GATS1m;GATS2m;GATS3m;GATS1v;GATS2v;GATS3v;GATS1se;GATS2se;GATS3se;GATS1pe;GATS2pe;GATS3pe;GATS1are;GATS2are;GATS3are;GATS1p;GATS2p;GATS3p;GATS1i;GATS2i;GATS3i;BCUTc-1h;BCUTc-1l;BCUTdv-1h;BCUTdv-1l;BCUTd-1h;BCUTd-1l;BCUTs-1h;BCUTs-1l;BCUTZ-1h;BCUTZ-1l;BCUTm-1h;BCUTm-1l;BCUTv-1h;BCUTv-1l;BCUTse-1h;BCUTse-1l;BCUTpe-1h;BCUTpe-1l;BCUTare-1h;BCUTare-1l;BCUTp-1h;BCUTp-1l;BCUTi-1h;BCUTi-1l;BalabanJ;SpAbs_DzZ;SpMax_DzZ;SpDiam_DzZ;SpAD_DzZ;SpMAD_DzZ;LogEE_DzZ;VE1_DzZ;VE2_DzZ;VE3_DzZ;VR1_DzZ;VR2_DzZ;VR3_DzZ;SpAbs_Dzm;SpMax_Dzm;SpDiam_Dzm;SpAD_Dzm;SpMAD_Dzm;LogEE_Dzm;VE1_Dzm;VE2_Dzm;VE3_Dzm;VR1_Dzm;VR2_Dzm;VR3_Dzm;SpAbs_Dzv;SpMax_Dzv;SpDiam_Dzv;SpAD_Dzv;SpMAD_Dzv;LogEE_Dzv;VE1_Dzv;VE2_Dzv;VE3_Dzv;VR1_Dzv;VR2_Dzv;VR3_Dzv;SpAbs_Dzse;SpMax_Dzse;SpDiam_Dzse;SpAD_Dzse;SpMAD_Dzse;LogEE_Dzse;VE1_Dzse;VE2_Dzse;VE3_Dzse;VR1_Dzse;VR2_Dzse;VR3_Dzse;SpAbs_Dzpe;SpMax_Dzpe;SpDiam_Dzpe;SpAD_Dzpe;SpMAD_Dzpe;LogEE_Dzpe;VE1_Dzpe;VE2_Dzpe;VE3_Dzpe;VR1_Dzpe;VR2_Dzpe;VR3_Dzpe;SpAbs_Dzare;SpMax_Dzare;SpDiam_Dzare;SpAD_Dzare;SpMAD_Dzare;LogEE_Dzare;VE1_Dzare;VE2_Dzare;VE3_Dzare;VR1_Dzare;VR2_Dzare;VR3_Dzare;SpAbs_Dzp;SpMax_Dzp;SpDiam_Dzp;SpAD_Dzp;SpMAD_Dzp;LogEE_Dzp;VE1_Dzp;VE2_Dzp;VE3_Dzp;VR1_Dzp;VR2_Dzp;VR3_Dzp;SpAbs_Dzi;SpMax_Dzi;SpDiam_Dzi;SpAD_Dzi;SpMAD_Dzi;LogEE_Dzi;VE1_Dzi;VE2_Dzi;VE3_Dzi;VR1_Dzi;VR2_Dzi;VR3_Dzi;BertzCT;nBonds;nBondsO;nBondsS;nBondsKS;RNCG;RPCG;C1SP3;C2SP3;C3SP3;C4SP3;Xc-3d;Xc-4d;Xc-5d;Xc-6d;Xc-3dv;Xc-4dv;Xc-5dv;Xc-6dv;Xpc-4d;Xpc-5d;Xpc-6d;Xpc-4dv;Xpc-5dv;Xpc-6dv;Xp-0d;Xp-1d;Xp-2d;Xp-3d;Xp-4d;Xp-5d;Xp-6d;Xp-7d;AXp-0d;AXp-1d;Xp-0dv;Xp-1dv;Xp-2dv;Xp-3dv;Xp-4dv;Xp-5dv;Xp-6dv;Xp-7dv;AXp-0dv;AXp-1dv;SZ;Sm;Sv;Sse;Spe;Sare;Sp;Si;MZ;Mm;Mv;Mse;Mpe;Mare;Mp;Mi;SpAbs_D;SpMax_D;SpDiam_D;SpAD_D;SpMAD_D;LogEE_D;VE1_D;VE2_D;VE3_D;VR1_D;VR2_D;VR3_D;NsCH3;NssCH2;NsssCH;NssssC;SsCH3;SssCH2;SsssCH;SssssC;MAXsCH3;MINsCH3;ECIndex;ETA_alpha;ETA_shape_p;ETA_shape_y;ETA_shape_x;ETA_beta;AETA_beta;ETA_beta_s;AETA_beta_s;ETA_eta;AETA_eta;ETA_eta_L;AETA_eta_L;ETA_eta_R;AETA_eta_R;ETA_eta_RL;AETA_eta_RL;ETA_eta_B;AETA_eta_B;ETA_eta_BR;AETA_eta_BR;ETA_epsilon_1;ETA_epsilon_2;ETA_epsilon_3;ETA_epsilon_4;ETA_epsilon_5;ETA_dBeta;AETA_dBeta;ETA_psi_1;ETA_dPsi_B;fragCpx;IC0;IC1;IC2;IC3;IC4;IC5;TIC0;TIC1;TIC2;TIC3;TIC4;TIC5;SIC0;SIC1;SIC2;SIC3;SIC4;SIC5;BIC0;BIC1;BIC2;BIC3;BIC4;BIC5;CIC0;CIC1;CIC2;CIC3;CIC4;CIC5;MIC0;MIC1;MIC2;MIC3;MIC4;MIC5;ZMIC0;ZMIC1;ZMIC2;ZMIC3;ZMIC4;ZMIC5;Kier1;Lipinski;GhoseFilter;FilterItLogS;VMcGowan;LabuteASA;PEOE_VSA6;PEOE_VSA7;SMR_VSA4;SMR_VSA5;SlogP_VSA4;SlogP_VSA5;EState_VSA3;EState_VSA4;EState_VSA5;EState_VSA7;EState_VSA8;VSA_EState4;VSA_EState5;VSA_EState7;VSA_EState8;MDEC-11;MID;AMID;MID_C;AMID_C;MPC2;MPC3;MPC4;MPC5;MPC6;MPC7;MPC8;MPC9;MPC10;TMPC10;piPC1;piPC2;piPC3;piPC4;piPC5;piPC6;piPC7;piPC8;piPC9;piPC10;TpiPC10;apol;bpol;nRot;RotRatio;SLogP;SMR;GGI1;GGI2;GGI3;GGI4;GGI5;GGI6;GGI7;GGI8;GGI9;GGI10;JGI1;JGI2;JGI3;JGI4;JGI5;JGI6;JGI7;JGI8;JGI9;JGI10;JGT10;Diameter;Radius;TopoShapeIndex;PetitjeanIndex;Vabc;VAdjMat;MWC01;MWC02;MWC03;MWC04;MWC05;MWC06;MWC07;MWC08;MWC09;MWC10;TMWC10;SRW02;SRW04;SRW06;SRW08;SRW10;TSRW10;MW;AMW;WPath;WPol;Zagreb1;Zagreb2;mZagreb1;mZagreb2
166.0;CCCCCC(C)CCC;4-methylnonane;IALRSQMWHFKJJA-UHFFFAOYSA-N;11.42991482812312;2.023683271963258;4.047366543926516;11.42991482812312;1.142991482812312;3.1146743445525775;2.8481435405347213;0.2848143540534721;1.0466673927483205;35.49202020674206;3.549202020674206;3.5693078883052314;32.0;10.0;22.0;10.0;36.0;35.0;32.0;27.0;21.0;15.0;9.0;4.0;1.0;58.0;71.0;121.0;134.0;127.0;104.0;88.0;57.0;42.0;49.27777777777778;59.0;93.08333333333331;115.74999999999999;113.16666666666666;101.83333333333333;84.25;64.0;46.0;382.0;456.0;555.0;551.0;496.0;407.0;313.0;215.0;121.0;1464.9946180000002;1564.733025;1749.473217;1649.7445519999997;1462.1323989999996;1144.3096609999996;881.0067879999998;554.0394739999999;290.73660099999995;4919.011394973762;6335.857675895378;8408.426471546592;8836.057691156904;8109.013046080152;6877.087287685804;5368.371711093148;3856.692252820428;2347.9766762277723;223.21136800000002;224.45254800000004;424.876356;565.940384;563.52166;500.613044;435.33313599999997;311.958344;246.67843599999998;171.505;181.9425;333.0825;434.59999999999997;429.85749999999996;381.4325;328.51;236.52500000000003;183.60250000000002;168.98000000000002;177.25;326.85;428.40000000000003;424.34999999999997;376.65;325.08;233.82000000000002;182.25000000000003;37.670483906678;49.59807482;71.856888732735;80.187335449715;75.16732273396;65.139369589715;52.104252299413005;38.074783011526996;25.039665721225;5336.131905433478;4509.845254493801;9427.325702838134;13305.129482658916;13490.43319583856;12006.011128111517;10717.826598941014;7569.1456629957265;6280.961133825224;1.125;1.1290322580645162;0.5333333333333333;0.3333333333333333;1.8125;2.2903225806451615;2.0166666666666666;1.654320987654321;1.5399305555555556;1.903225806451613;1.5513888888888885;1.4290123456790123;11.9375;14.709677419354838;9.25;6.802469135802469;45.781081812500005;50.47525887096774;29.157886949999998;20.36721669135802;153.71910609293008;204.38250567404444;140.1404411924432;109.08713198959141;6.975355250000001;7.240404774193549;7.0812726;6.986918320987654;5.35953125;5.8691129032258065;5.551374999999999;5.365432098765432;5.280625000000001;5.717741935483871;5.447500000000001;5.28888888888889;1.1772026220836875;1.5999378974193548;1.19761481221225;0.989967104317469;166.7541220447962;145.4788791772194;157.12209504730222;164.2608578106039;0.045790995112911625;-0.00581619848981067;-0.014822122417392308;-0.004974000661167689;0.0015911697533675488;-0.006359464264466578;0.006412311183035685;-0.006607916978674243;0.004650106022362516;25.875;4.30859375;-9.765625;-4.74609375;-3.99609375;-2.71875;-1.44140625;-2.01171875;2.265625;8.0;1.9375;-2.75;-1.9375;-1.4375;-1.0;-1.0625;-0.1875;0.75;3.3576388888888897;-1.1329210069444424;-0.5039062499999989;-0.4104817708333333;0.5999348958333329;-0.8880208333333335;0.9573567708333326;-0.7998046875;0.6289062499999992;171.875;-11.81640625;-50.390625;-24.12109375;-2.24609375;-27.34375;19.43359375;-27.63671875;19.140625;832.3288118749999;-57.22260581640611;-244.02367439062488;-116.8097821210937;-10.877024246093768;-132.41594734374996;94.10990543359368;-133.83468963671876;92.6911631406249;1547.7509673946556;-106.40787900838225;-453.7724427134329;-217.21277781049994;-20.226291051180198;-246.23310844914982;175.0013877906456;-248.87132032539074;172.36317591440468;0.1630474999999998;-0.011209515625000693;-0.047802562500000506;-0.02288223437500009;-0.0021307343749999074;-0.025939374999999865;0.0184354843750003;-0.02621729687499983;0.01815756250000034;0.8421874999999983;-0.05790039062500069;-0.24691406250000017;-0.11819335937499992;-0.011005859374999892;-0.13398437499999963;0.09522460937500016;-0.13541992187499957;0.09378906250000021;0.6187499999999992;-0.042539062500000294;-0.18140625000000005;-0.08683593749999996;-0.008085937499999949;-0.09843749999999984;0.06996093750000006;-0.09949218749999982;0.06890625000000009;6.919166958336874;-0.4756927283856631;-2.0285739491487678;-0.9710421810847778;-0.09042093184190186;-1.100776561553593;0.7823376276755915;-1.112570596141667;0.7705435930875172;37.58502473308684;-2.5839704503997742;-11.019245887655046;-5.274716539245718;-0.49116793685283233;-5.97943575299108;4.2496704101615475;-6.043501136058838;4.1856050270937875;0.0014309685972784883;-0.00018761930612292484;-0.0002470353736232051;-6.140741556997148e-05;0.80859375;0.1389868951612903;-0.16276041666666666;-0.05859375;0.25;0.0625;-0.04583333333333333;-0.023919753086419752;0.1049262152777778;-0.03654583893369169;-0.008398437499999982;-0.005067676183127571;5.37109375;-0.3811743951612903;-0.83984375;-0.29779128086419754;26.010275371093748;-1.8458905102066487;-4.067061239843748;-1.4420960755690582;48.36721773108299;-3.432512226076847;-7.562874045223881;-2.6816392322283944;0.005095234374999993;-0.00036159727822582884;-0.0007967093750000084;-0.00028249672067901346;0.026318359374999947;-0.001867754536290345;-0.004115234375000003;-0.001459177276234567;0.019335937499999976;-0.0013722278225806546;-0.003023437500000001;-0.0010720486111111106;0.2162239674480273;-0.015344926722118166;-0.03380956581914613;-0.011988175075120714;1.1745320229089637;-0.08335388549676691;-0.1836540981275841;-0.0651199572746385;-0.13111350345475908;-0.17263507675362932;-0.042913181803402395;0.17188717469222378;-0.20128824476650561;-0.07246376811594203;-0.3483003636121019;-0.08004136504653549;-0.04829752192730474;-0.07096774193548387;-0.15636363636363637;-0.05544332210998878;-0.0709677419354837;-0.15636363636363632;-0.055443322109988764;-0.07096774193548366;-0.1563636363636363;-0.05544332210998877;-0.07096774193548835;-0.1563636363636382;-0.05544332210998906;-0.07096774193548486;-0.1563636363636368;-0.055443322109988855;-0.07096774193548444;-0.1563636363636366;-0.05544332210998882;-0.07096774193548433;-0.15636363636363657;-0.05544332210998881;-0.07096774193548536;-0.15636363636363693;-0.05544332210998887;1.6606376433064745;1.298665157356569;1.0195159361660608;1.429951690821256;1.6972624798711755;1.1536947575594918;1.9524301964839703;0.9873836608066181;0.9213681106131981;1.6;1.3527272727272728;1.0576879910213244;1.6000000000000003;1.3527272727272728;1.0576879910213246;1.6000000000000005;1.352727272727273;1.0576879910213246;1.6;1.352727272727273;1.0576879910213246;1.6000000000000003;1.3527272727272728;1.0576879910213244;1.6000000000000003;1.3527272727272728;1.0576879910213246;1.6;1.352727272727273;1.0576879910213244;1.5999999999999999;1.3527272727272726;1.0576879910213242;0.20923259952623965;-0.20851164067404396;3.0257575565006922;0.9871436198709853;3.0257575565006922;0.9871436198709853;2.0265954572361466;1.2306684575362794;6.211737427711602;5.794666859358261;12.222737427711602;11.80566685935826;20.79126370382713;20.3741931354738;2.957737427711609;2.540666859358262;2.7617374277116054;2.344666859358264;2.711737427711608;2.294666859358261;1.8817374277116077;1.464666859358261;11.472037427711617;11.054966859358265;2.968015041036938;62.52824143307697;31.26412071653849;48.343756534236135;62.52824143307698;6.252824143307698;31.26412071653859;3.1071471956950965;0.31071471956950963;1.1337050047940682;31.261298195751213;3.1261298195751213;3.4423808531057936;62.52824143307697;31.26412071653849;48.343756534236135;62.52824143307698;6.252824143307698;31.26412071653859;3.1071471956950965;0.31071471956950963;1.1337050047940682;31.261298195751213;3.1261298195751213;3.4423808531057936;62.52824143307697;31.26412071653849;48.343756534236135;62.52824143307698;6.252824143307698;31.26412071653859;3.1071471956950965;0.31071471956950963;1.1337050047940682;31.261298195751213;3.1261298195751213;3.4423808531057936;62.52824143307697;31.26412071653849;48.343756534236135;62.52824143307698;6.252824143307698;31.26412071653859;3.1071471956950965;0.31071471956950963;1.1337050047940682;31.261298195751213;3.1261298195751213;3.4423808531057936;62.52824143307697;31.26412071653849;48.343756534236135;62.52824143307698;6.252824143307698;31.26412071653859;3.1071471956950965;0.31071471956950963;1.1337050047940682;31.261298195751213;3.1261298195751213;3.4423808531057936;62.52824143307697;31.26412071653849;48.343756534236135;62.52824143307698;6.252824143307698;31.26412071653859;3.1071471956950965;0.31071471956950963;1.1337050047940682;31.261298195751213;3.1261298195751213;3.4423808531057936;62.52824143307697;31.26412071653849;48.343756534236135;62.52824143307698;6.252824143307698;31.26412071653859;3.1071471956950965;0.31071471956950963;1.1337050047940682;31.261298195751213;3.1261298195751213;3.4423808531057936;62.52824143307697;31.26412071653849;48.343756534236135;62.52824143307698;6.252824143307698;31.26412071653859;3.1071471956950965;0.31071471956950963;1.1337050047940682;31.261298195751213;3.1261298195751213;3.4423808531057936;57.058650025961626;31.0;9.0;31.0;31.0;0.11718308603453088;0.053740618534628824;3.0;6.0;1.0;0.0;0.28867513459481287;0.0;0.0;0.0;0.28867513459481287;0.0;0.0;0.0;0.408248290463863;0.4927992798267444;0.34846171252933794;0.408248290463863;0.4927992798267444;0.34846171252933794;7.819990956308912;4.808060412490447;3.3896287658987125;2.081951230073507;1.3799361269508952;0.6371368471241509;0.42063049617804116;0.14433756729740643;0.7819990956308912;0.5342289347211608;7.819990956308912;4.808060412490447;3.3896287658987125;2.081951230073507;1.3799361269508952;0.6371368471241509;0.42063049617804116;0.14433756729740643;0.7819990956308912;0.5342289347211608;13.666666666666668;11.846307551411208;15.96010584164462;30.766205389657685;28.98039215686275;29.360000000000003;18.784099401197608;36.568186105165935;0.42708333333333337;0.37019711098160024;0.49875330755139435;0.9614439184268027;0.9056372549019609;0.9175000000000001;0.5870031062874252;1.1427558157864355;62.52824143307697;31.26412071653849;48.343756534236135;62.52824143307698;6.252824143307698;31.26412071653859;3.1071471956950965;0.31071471956950963;1.1337050047940682;31.261298195751213;3.1261298195751213;3.4423808531057936;3.0;6.0;1.0;0.0;6.9166350151171585;8.447670540438398;0.9690277777777776;0.0;2.3741666666666665;2.2683406557067274;107.0;5.0;0.3;0.1;0.0;4.5;0.45;4.5;0.45;11.45959959385616;1.145959959385616;4.808060412490447;0.48080604124904475;11.45959959385616;1.145959959385616;4.808060412490447;0.48080604124904475;0.10615314988264757;0.010615314988264757;0.10615314988264757;0.010615314988264757;0.425;0.7;0.425;0.425;0.7;-4.5;-0.45;0.7142857142857143;0.00028571428571433355;9.0;0.8960382325345574;1.300870058859033;2.514097655573916;3.554229296672175;3.991729296672175;4.179229296672174;28.673223441105836;41.627841883489054;80.45112497836531;113.7353374935096;127.7353374935096;133.73533749350958;0.17920764650691148;0.2601740117718066;0.5028195311147832;0.710845859334435;0.798345859334435;0.8358458593344349;0.1808644987797396;0.26257943314269827;0.5074683153557936;0.7174179370366178;0.8057269124162865;0.84357361615043;4.103961767465442;3.699129941140967;2.485902344426084;1.4457707033278249;1.0082707033278249;0.8207707033278258;6.673151904630568;11.535586970613844;16.975647936818504;20.087163131045546;21.215850631045548;21.404850631045548;39.639944988972836;31.177975668276126;25.031296086853942;18.833646483360873;16.208646483360873;15.412687890016525;10.0;1.0;0.0;-3.493302638111995;151.76000000000002;66.02373005739902;59.296141336627926;5.917906046161393;5.917906046161393;59.296141336627926;5.917906046161393;59.296141336627926;0.0;5.917906046161393;38.524929737556064;0.0;20.771211599071872;0.0;0.9690277777777776;8.447670540438398;6.9166350151171585;0.520020955762976;18.65329824543886;1.865329824543886;18.65329824543886;1.865329824543886;9.0;8.0;7.0;5.0;4.0;2.0;1.0;0.0;0.0;55.0;2.302585092994046;2.302585092994046;2.1972245773362196;2.0794415416798357;1.791759469228055;1.6094379124341003;1.0986122886681098;0.6931471805599453;0.0;0.0;4.02535169073515;31.369446;22.070553999999998;6.0;0.6666666666666666;4.002900000000003;48.21400000000003;1.5;0.666666666666667;0.375;0.16000000000000003;0.1111111111111111;0.04081632653061225;0.03125;0.0;0.0;0.0;0.16666666666666669;0.07407407407407411;0.046875;0.02285714285714286;0.02222222222222222;0.010204081632653062;0.015625;0.0;0.0;0.0;0.35852418745275894;8.0;4.0;1.0;0.5;181.5163111863147;4.169925001442312;9.0;3.6109179126442243;4.2626798770413155;4.962844630259907;5.638354669333745;6.35088571671474;7.034387929915503;7.751475318021456;8.437933510430605;9.156834104453042;76.20631366881454;2.9444389791664403;4.007333185232471;5.231108616854587;6.532334292222349;7.874358824729881;36.58957389820573;142.172150704;4.4428797095;150.0;8.0;36.0;35.0;4.611111111111111;2.666666666666667