boiling_point;SMILES;IUPAC_name;InChIKey;SpAbs_A;SpMax_A;SpDiam_A;SpAD_A;SpMAD_A;LogEE_A;VE1_A;VE2_A;VE3_A;VR1_A;VR2_A;VR3_A;nAtom;nHeavyAtom;nH;nC;ATS0dv;ATS1dv;ATS2dv;ATS3dv;ATS4dv;ATS5dv;ATS6dv;ATS7dv;ATS8dv;ATS0d;ATS1d;ATS2d;ATS3d;ATS4d;ATS5d;ATS6d;ATS7d;ATS8d;ATS0s;ATS1s;ATS2s;ATS3s;ATS4s;ATS5s;ATS6s;ATS7s;ATS8s;ATS0Z;ATS1Z;ATS2Z;ATS3Z;ATS4Z;ATS5Z;ATS6Z;ATS7Z;ATS8Z;ATS0m;ATS1m;ATS2m;ATS3m;ATS4m;ATS5m;ATS6m;ATS7m;ATS8m;ATS0v;ATS1v;ATS2v;ATS3v;ATS4v;ATS5v;ATS6v;ATS7v;ATS8v;ATS0se;ATS1se;ATS2se;ATS3se;ATS4se;ATS5se;ATS6se;ATS7se;ATS8se;ATS0pe;ATS1pe;ATS2pe;ATS3pe;ATS4pe;ATS5pe;ATS6pe;ATS7pe;ATS8pe;ATS0are;ATS1are;ATS2are;ATS3are;ATS4are;ATS5are;ATS6are;ATS7are;ATS8are;ATS0p;ATS1p;ATS2p;ATS3p;ATS4p;ATS5p;ATS6p;ATS7p;ATS8p;ATS0i;ATS1i;ATS2i;ATS3i;ATS4i;ATS5i;ATS6i;ATS7i;ATS8i;AATS0dv;AATS1dv;AATS2dv;AATS3dv;AATS0d;AATS1d;AATS2d;AATS3d;AATS0s;AATS1s;AATS2s;AATS3s;AATS0Z;AATS1Z;AATS2Z;AATS3Z;AATS0m;AATS1m;AATS2m;AATS3m;AATS0v;AATS1v;AATS2v;AATS3v;AATS0se;AATS1se;AATS2se;AATS3se;AATS0pe;AATS1pe;AATS2pe;AATS3pe;AATS0are;AATS1are;AATS2are;AATS3are;AATS0p;AATS1p;AATS2p;AATS3p;AATS0i;AATS1i;AATS2i;AATS3i;ATSC0c;ATSC1c;ATSC2c;ATSC3c;ATSC4c;ATSC5c;ATSC6c;ATSC7c;ATSC8c;ATSC0dv;ATSC1dv;ATSC2dv;ATSC3dv;ATSC4dv;ATSC5dv;ATSC6dv;ATSC7dv;ATSC8dv;ATSC0d;ATSC1d;ATSC2d;ATSC3d;ATSC4d;ATSC5d;ATSC6d;ATSC7d;ATSC8d;ATSC0s;ATSC1s;ATSC2s;ATSC3s;ATSC4s;ATSC5s;ATSC6s;ATSC7s;ATSC8s;ATSC0Z;ATSC1Z;ATSC2Z;ATSC3Z;ATSC4Z;ATSC5Z;ATSC6Z;ATSC7Z;ATSC8Z;ATSC0m;ATSC1m;ATSC2m;ATSC3m;ATSC4m;ATSC5m;ATSC6m;ATSC7m;ATSC8m;ATSC0v;ATSC1v;ATSC2v;ATSC3v;ATSC4v;ATSC5v;ATSC6v;ATSC7v;ATSC8v;ATSC0se;ATSC1se;ATSC2se;ATSC3se;ATSC4se;ATSC5se;ATSC6se;ATSC7se;ATSC8se;ATSC0pe;ATSC1pe;ATSC2pe;ATSC3pe;ATSC4pe;ATSC5pe;ATSC6pe;ATSC7pe;ATSC8pe;ATSC0are;ATSC1are;ATSC2are;ATSC3are;ATSC4are;ATSC5are;ATSC6are;ATSC7are;ATSC8are;ATSC0p;ATSC1p;ATSC2p;ATSC3p;ATSC4p;ATSC5p;ATSC6p;ATSC7p;ATSC8p;ATSC0i;ATSC1i;ATSC2i;ATSC3i;ATSC4i;ATSC5i;ATSC6i;ATSC7i;ATSC8i;AATSC0c;AATSC1c;AATSC2c;AATSC3c;AATSC0dv;AATSC1dv;AATSC2dv;AATSC3dv;AATSC0d;AATSC1d;AATSC2d;AATSC3d;AATSC0s;AATSC1s;AATSC2s;AATSC3s;AATSC0Z;AATSC1Z;AATSC2Z;AATSC3Z;AATSC0m;AATSC1m;AATSC2m;AATSC3m;AATSC0v;AATSC1v;AATSC2v;AATSC3v;AATSC0se;AATSC1se;AATSC2se;AATSC3se;AATSC0pe;AATSC1pe;AATSC2pe;AATSC3pe;AATSC0are;AATSC1are;AATSC2are;AATSC3are;AATSC0p;AATSC1p;AATSC2p;AATSC3p;AATSC0i;AATSC1i;AATSC2i;AATSC3i;MATS1c;MATS2c;MATS3c;MATS1dv;MATS2dv;MATS3dv;MATS1s;MATS2s;MATS3s;MATS1Z;MATS2Z;MATS3Z;MATS1m;MATS2m;MATS3m;MATS1v;MATS2v;MATS3v;MATS1se;MATS2se;MATS3se;MATS1pe;MATS2pe;MATS3pe;MATS1are;MATS2are;MATS3are;MATS1p;MATS2p;MATS3p;MATS1i;MATS2i;MATS3i;GATS1c;GATS2c;GATS3c;GATS1dv;GATS2dv;GATS3dv;GATS1s;GATS2s;GATS3s;GATS1Z;GATS2Z;GATS3Z;GATS1m;GATS2m;GATS3m;GATS1v;GATS2v;GATS3v;GATS1se;GATS2se;GATS3se;GATS1pe;GATS2pe;GATS3pe;GATS1are;GATS2are;GATS3are;GATS1p;GATS2p;GATS3p;GATS1i;GATS2i;GATS3i;BCUTc-1h;BCUTc-1l;BCUTdv-1h;BCUTdv-1l;BCUTd-1h;BCUTd-1l;BCUTs-1h;BCUTs-1l;BCUTZ-1h;BCUTZ-1l;BCUTm-1h;BCUTm-1l;BCUTv-1h;BCUTv-1l;BCUTse-1h;BCUTse-1l;BCUTpe-1h;BCUTpe-1l;BCUTare-1h;BCUTare-1l;BCUTp-1h;BCUTp-1l;BCUTi-1h;BCUTi-1l;BalabanJ;SpAbs_DzZ;SpMax_DzZ;SpDiam_DzZ;SpAD_DzZ;SpMAD_DzZ;LogEE_DzZ;VE1_DzZ;VE2_DzZ;VE3_DzZ;VR1_DzZ;VR2_DzZ;VR3_DzZ;SpAbs_Dzm;SpMax_Dzm;SpDiam_Dzm;SpAD_Dzm;SpMAD_Dzm;LogEE_Dzm;VE1_Dzm;VE2_Dzm;VE3_Dzm;VR1_Dzm;VR2_Dzm;VR3_Dzm;SpAbs_Dzv;SpMax_Dzv;SpDiam_Dzv;SpAD_Dzv;SpMAD_Dzv;LogEE_Dzv;VE1_Dzv;VE2_Dzv;VE3_Dzv;VR1_Dzv;VR2_Dzv;VR3_Dzv;SpAbs_Dzse;SpMax_Dzse;SpDiam_Dzse;SpAD_Dzse;SpMAD_Dzse;LogEE_Dzse;VE1_Dzse;VE2_Dzse;VE3_Dzse;VR1_Dzse;VR2_Dzse;VR3_Dzse;SpAbs_Dzpe;SpMax_Dzpe;SpDiam_Dzpe;SpAD_Dzpe;SpMAD_Dzpe;LogEE_Dzpe;VE1_Dzpe;VE2_Dzpe;VE3_Dzpe;VR1_Dzpe;VR2_Dzpe;VR3_Dzpe;SpAbs_Dzare;SpMax_Dzare;SpDiam_Dzare;SpAD_Dzare;SpMAD_Dzare;LogEE_Dzare;VE1_Dzare;VE2_Dzare;VE3_Dzare;VR1_Dzare;VR2_Dzare;VR3_Dzare;SpAbs_Dzp;SpMax_Dzp;SpDiam_Dzp;SpAD_Dzp;SpMAD_Dzp;LogEE_Dzp;VE1_Dzp;VE2_Dzp;VE3_Dzp;VR1_Dzp;VR2_Dzp;VR3_Dzp;SpAbs_Dzi;SpMax_Dzi;SpDiam_Dzi;SpAD_Dzi;SpMAD_Dzi;LogEE_Dzi;VE1_Dzi;VE2_Dzi;VE3_Dzi;VR1_Dzi;VR2_Dzi;VR3_Dzi;BertzCT;nBonds;nBondsO;nBondsS;nBondsKS;RNCG;RPCG;C1SP3;C2SP3;C3SP3;C4SP3;Xc-3d;Xc-4d;Xc-5d;Xc-6d;Xc-3dv;Xc-4dv;Xc-5dv;Xc-6dv;Xpc-4d;Xpc-5d;Xpc-6d;Xpc-4dv;Xpc-5dv;Xpc-6dv;Xp-0d;Xp-1d;Xp-2d;Xp-3d;Xp-4d;Xp-5d;Xp-6d;Xp-7d;AXp-0d;AXp-1d;Xp-0dv;Xp-1dv;Xp-2dv;Xp-3dv;Xp-4dv;Xp-5dv;Xp-6dv;Xp-7dv;AXp-0dv;AXp-1dv;SZ;Sm;Sv;Sse;Spe;Sare;Sp;Si;MZ;Mm;Mv;Mse;Mpe;Mare;Mp;Mi;SpAbs_D;SpMax_D;SpDiam_D;SpAD_D;SpMAD_D;LogEE_D;VE1_D;VE2_D;VE3_D;VR1_D;VR2_D;VR3_D;NsCH3;NssCH2;NsssCH;NssssC;SsCH3;SssCH2;SsssCH;SssssC;MAXsCH3;MINsCH3;ECIndex;ETA_alpha;ETA_shape_p;ETA_shape_y;ETA_shape_x;ETA_beta;AETA_beta;ETA_beta_s;AETA_beta_s;ETA_eta;AETA_eta;ETA_eta_L;AETA_eta_L;ETA_eta_R;AETA_eta_R;ETA_eta_RL;AETA_eta_RL;ETA_eta_B;AETA_eta_B;ETA_eta_BR;AETA_eta_BR;ETA_epsilon_1;ETA_epsilon_2;ETA_epsilon_3;ETA_epsilon_4;ETA_epsilon_5;ETA_dBeta;AETA_dBeta;ETA_psi_1;ETA_dPsi_B;fragCpx;IC0;IC1;IC2;IC3;IC4;IC5;TIC0;TIC1;TIC2;TIC3;TIC4;TIC5;SIC0;SIC1;SIC2;SIC3;SIC4;SIC5;BIC0;BIC1;BIC2;BIC3;BIC4;BIC5;CIC0;CIC1;CIC2;CIC3;CIC4;CIC5;MIC0;MIC1;MIC2;MIC3;MIC4;MIC5;ZMIC0;ZMIC1;ZMIC2;ZMIC3;ZMIC4;ZMIC5;Kier1;Lipinski;GhoseFilter;FilterItLogS;VMcGowan;LabuteASA;PEOE_VSA6;PEOE_VSA7;SMR_VSA4;SMR_VSA5;SlogP_VSA4;SlogP_VSA5;EState_VSA3;EState_VSA4;EState_VSA5;EState_VSA7;EState_VSA8;VSA_EState4;VSA_EState5;VSA_EState7;VSA_EState8;MDEC-11;MID;AMID;MID_C;AMID_C;MPC2;MPC3;MPC4;MPC5;MPC6;MPC7;MPC8;MPC9;MPC10;TMPC10;piPC1;piPC2;piPC3;piPC4;piPC5;piPC6;piPC7;piPC8;piPC9;piPC10;TpiPC10;apol;bpol;nRot;RotRatio;SLogP;SMR;GGI1;GGI2;GGI3;GGI4;GGI5;GGI6;GGI7;GGI8;GGI9;GGI10;JGI1;JGI2;JGI3;JGI4;JGI5;JGI6;JGI7;JGI8;JGI9;JGI10;JGT10;Diameter;Radius;TopoShapeIndex;PetitjeanIndex;Vabc;VAdjMat;MWC01;MWC02;MWC03;MWC04;MWC05;MWC06;MWC07;MWC08;MWC09;MWC10;TMWC10;SRW02;SRW04;SRW06;SRW08;SRW10;TSRW10;MW;AMW;WPath;WPol;Zagreb1;Zagreb2;mZagreb1;mZagreb2
-42.1;CCC;propane;ATUOYWHBWRKTHZ-UHFFFAOYSA-N;2.82842712474619;1.414213562373095;2.82842712474619;2.82842712474619;0.9428090415820632;1.8494570055365824;1.7071067811865475;0.5690355937288492;-0.6691728075863654;3.3635856610148585;1.1211952203382862;0.009034761653968602;11.0;3.0;8.0;3.0;6.0;4.0;1.0;0.0;0.0;0.0;0.0;0.0;0.0;14.0;14.0;24.0;18.0;9.0;0.0;0.0;0.0;0.0;18.25;21.0;28.0;24.0;9.0;0.0;0.0;0.0;0.0;116.0;120.0;103.0;48.0;9.0;0.0;0.0;0.0;0.0;440.920875;385.3849459999999;272.447449;84.835296;9.144576;0.0;0.0;0.0;0.0;1519.220660695431;1764.9267344628086;1788.4692764710278;1061.424631394275;279.75369987837234;0.0;0.0;0.0;0.0;76.36926;72.022088;125.746084;123.32736000000001;60.466176;0.0;0.0;0.0;0.0;58.22750000000001;57.885000000000005;96.4825;91.74000000000001;43.56000000000001;0.0;0.0;0.0;0.0;57.47000000000001;56.5;95.13;91.08000000000001;43.56000000000001;0.0;0.0;0.0;0.0;11.923603238792001;14.48615448;17.036633433943;12.016620718188;4.001516143640999;0.0;0.0;0.0;0.0;1859.724284463992;1478.5690938832;2952.4433973887426;3137.747110568388;1664.2588682182407;0.0;0.0;0.0;0.0;0.5454545454545454;0.4;0.05555555555555555;0.0;1.2727272727272727;1.4;1.3333333333333333;1.0;1.6590909090909092;2.1;1.5555555555555556;1.3333333333333333;10.545454545454545;12.0;5.722222222222222;2.6666666666666665;40.08371590909091;38.53849459999999;15.135969388888888;4.713072;138.1109691541301;176.49267344628086;99.35940424839043;58.96803507745972;6.94266;7.202208799999999;6.985893555555555;6.851520000000001;5.293409090909092;5.788500000000001;5.360138888888889;5.096666666666668;5.2245454545454555;5.65;5.285;5.0600000000000005;1.0839639307992728;1.448615448;0.9464796352190555;0.6675900398993333;169.06584404218108;147.85690938832;164.02463318826346;174.319283920466;0.016646406801501586;-0.004398307076546469;-0.006835760521237261;-0.0018606057479676067;0.004771469945000541;0.0;0.0;0.0;0.0;4.545454545454543;-0.4958677685950415;-3.165289256198347;0.19834710743801676;1.190082644628099;0.0;0.0;0.0;0.0;0.909090909090909;-0.2809917355371899;-0.39669421487603285;0.14876033057851212;0.07438016528925606;0.0;0.0;0.0;0.0;1.6818181818181817;-0.756198347107438;-0.11570247933884292;-0.43388429752066116;0.46487603305785136;0.0;0.0;0.0;0.0;54.545454545454554;-13.223140495867773;-23.347107438016526;-7.438016528925618;16.73553719008265;0.0;0.0;0.0;0.0;264.1440196363636;-64.03491385123966;-113.06164476859502;-36.01963904132231;81.04418784297519;0.0;0.0;0.0;0.0;491.1870838673949;-119.07565669512607;-210.24295635233193;-66.98005689100836;150.7051280047689;0.0;0.0;0.0;0.0;0.05174399999999995;-0.012543999999999823;-0.022147999999999918;-0.007056000000000085;0.015875999999999862;0.0;0.0;0.0;0.0;0.2672727272727267;-0.06479338842975063;-0.11440082644628036;-0.036446280991736225;0.08200413223140382;0.0;0.0;0.0;0.0;0.19636363636363616;-0.04760330578512351;-0.08404958677685928;-0.02677685950413243;0.06024793388429715;0.0;0.0;0.0;0.0;2.195834803306909;-0.5323235886804636;-0.9398838362639423;-0.2994320186327598;0.6737220419237113;0.0;0.0;0.0;0.0;11.92780950207053;-2.8915901823201313;-5.105463915658978;-1.6265194775550706;3.6596688244989153;0.0;0.0;0.0;0.0;0.001513309709227417;-0.00043983070765464695;-0.00037976447340207003;-0.00010336698599820038;0.41322314049586756;-0.04958677685950415;-0.17584940312213038;0.011019283746556486;0.08264462809917354;-0.028099173553718992;-0.022038567493112934;0.00826446280991734;0.15289256198347106;-0.07561983471074381;-0.006427915518824607;-0.024104683195592287;4.958677685950414;-1.3223140495867773;-1.2970615243342514;-0.41322314049586767;24.013092694214876;-6.403491385123966;-6.281202487144167;-2.001091057851239;44.653371260672266;-11.907565669512607;-11.680164241796218;-3.7211142717226866;0.0047039999999999955;-0.0012543999999999824;-0.0012304444444444398;-0.0003920000000000047;0.024297520661156976;-0.006479338842975063;-0.006355601469237798;-0.0020247933884297905;0.017851239669421468;-0.004760330578512351;-0.004669421487603294;-0.001487603305785135;0.19962134575517354;-0.05323235886804636;-0.05221576868133013;-0.016635112146264435;1.0843463183700484;-0.2891590182320131;-0.2836368842032766;-0.09036219319750392;-0.2906415685915289;-0.2509496047546998;-0.06830524205846261;-0.1200000000000001;-0.42555555555555574;0.02666666666666671;-0.4945945945945947;-0.04204204204204203;-0.15765765765765766;-0.2666666666666667;-0.26157407407407396;-0.0833333333333333;-0.26666666666666666;-0.261574074074074;-0.0833333333333333;-0.2666666666666667;-0.2615740740740741;-0.08333333333333329;-0.26666666666666317;-0.26157407407407335;-0.08333333333333441;-0.26666666666666133;-0.2615740740740732;-0.08333333333333508;-0.2666666666666644;-0.2615740740740737;-0.08333333333333402;-0.26666666666666705;-0.2615740740740741;-0.08333333333333319;-0.2666666666666669;-0.2615740740740742;-0.08333333333333325;1.8549213246849887;1.235957865269266;0.7890858432390742;1.7600000000000011;1.7111111111111121;0.36666666666666686;2.081081081081081;0.9084084084084086;0.9909909909909911;1.8333333333333333;1.2731481481481481;0.7638888888888888;1.8333333333333335;1.2731481481481484;0.763888888888889;1.8333333333333333;1.2731481481481481;0.7638888888888888;1.833333333333333;1.2731481481481481;0.7638888888888888;1.8333333333333333;1.2731481481481481;0.7638888888888888;1.8333333333333335;1.273148148148148;0.7638888888888888;1.833333333333333;1.2731481481481477;0.763888888888889;1.833333333333334;1.2731481481481486;0.7638888888888892;0.15445070731813465;-0.15688109360927607;2.023663693312139;0.9773363066878586;2.023663693312139;0.9773363066878586;2.045373277866952;1.45562672213305;6.156064295389398;5.844935704610602;12.167064295389386;11.8559357046106;20.73559057150492;20.424461980726132;2.9020642953893967;2.590935704610602;2.706064295389397;2.3949357046106003;2.656064295389398;2.344935704610601;1.8260642953893964;1.5149357046106013;11.416364295389387;11.1052357046106;1.6329931618554523;5.464101615137755;2.732050807568878;4.7320508075688785;5.464101615137756;1.8213672050459186;2.8320727567614354;1.7156269037800917;0.5718756345933639;-0.6641942489393371;3.7224194364083996;1.2408064788028;0.11040103868100991;5.464101615137755;2.732050807568878;4.7320508075688785;5.464101615137756;1.8213672050459186;2.8320727567614354;1.7156269037800917;0.5718756345933639;-0.6641942489393371;3.7224194364083996;1.2408064788028;0.11040103868100991;5.464101615137755;2.732050807568878;4.7320508075688785;5.464101615137756;1.8213672050459186;2.8320727567614354;1.7156269037800917;0.5718756345933639;-0.6641942489393371;3.7224194364083996;1.2408064788028;0.11040103868100991;5.464101615137755;2.732050807568878;4.7320508075688785;5.464101615137756;1.8213672050459186;2.8320727567614354;1.7156269037800917;0.5718756345933639;-0.6641942489393371;3.7224194364083996;1.2408064788028;0.11040103868100991;5.464101615137755;2.732050807568878;4.7320508075688785;5.464101615137756;1.8213672050459186;2.8320727567614354;1.7156269037800917;0.5718756345933639;-0.6641942489393371;3.7224194364083996;1.2408064788028;0.11040103868100991;5.464101615137755;2.732050807568878;4.7320508075688785;5.464101615137756;1.8213672050459186;2.8320727567614354;1.7156269037800917;0.5718756345933639;-0.6641942489393371;3.7224194364083996;1.2408064788028;0.11040103868100991;5.464101615137755;2.732050807568878;4.7320508075688785;5.464101615137756;1.8213672050459186;2.8320727567614354;1.7156269037800917;0.5718756345933639;-0.6641942489393371;3.7224194364083996;1.2408064788028;0.11040103868100991;5.464101615137755;2.732050807568878;4.7320508075688785;5.464101615137756;1.8213672050459186;2.8320727567614354;1.7156269037800917;0.5718756345933639;-0.6641942489393371;3.7224194364083996;1.2408064788028;0.11040103868100991;0.0;10.0;2.0;10.0;10.0;0.3449046453411883;0.13707192233332607;2.0;1.0;0.0;0.0;0.0;0.0;0.0;0.0;0.0;0.0;0.0;0.0;0.0;0.0;0.0;0.0;0.0;0.0;2.7071067811865475;1.4142135623730951;0.7071067811865476;0.0;0.0;0.0;0.0;0.0;0.9023689270621825;0.7071067811865476;2.7071067811865475;1.4142135623730951;0.7071067811865476;0.0;0.0;0.0;0.0;0.0;0.9023689270621825;0.7071067811865476;4.333333333333334;3.67138456414953;5.167311215143498;10.551347414420976;9.901960784313728;10.040000000000003;6.194217964071855;12.661158583696704;0.393939393939394;0.3337622331045027;0.46975556501304533;0.9592134013109977;0.9001782531194298;0.9127272727272729;0.5631107240065323;1.1510144166997003;5.464101615137755;2.732050807568878;4.7320508075688785;5.464101615137756;1.8213672050459186;2.8320727567614354;1.7156269037800917;0.5718756345933639;-0.6641942489393371;3.7224194364083996;1.2408064788028;0.11040103868100991;2.0;1.0;0.0;0.0;4.25;1.25;0.0;0.0;2.125;2.125;6.0;1.5;0.6666666666666666;0.0;0.0;1.0;0.3333333333333333;1.0;0.3333333333333333;1.914213562373095;0.6380711874576983;1.4142135623730951;0.47140452079103173;1.914213562373095;0.6380711874576983;1.4142135623730951;0.47140452079103173;0.0;0.0;0.0;0.0;0.4090909090909091;0.6999999999999998;0.4090909090909091;0.4090909090909091;0.6999999999999998;-1.0;-0.3333333333333333;0.7142857142857144;0.00028571428571444457;2.0;0.8453509366224364;1.0957952550009336;1.6858157091530304;1.6858157091530304;1.6858157091530304;1.6858157091530304;9.298860302846801;12.05374780501027;18.543972800683335;18.543972800683335;18.543972800683335;18.543972800683335;0.2443612216724284;0.31675586506681047;0.48731002517028765;0.48731002517028765;0.48731002517028765;0.48731002517028765;0.2544759887859945;0.32986724086154223;0.5074810956166081;0.5074810956166081;0.5074810956166081;0.5074810956166081;2.614080682014861;2.3636363636363638;1.773615909484267;1.773615909484267;1.773615909484267;1.773615909484267;6.477054754414861;9.48514146245899;10.079882080244303;10.079882080244303;10.079882080244303;10.079882080244303;11.874995996387149;9.926052013809631;11.009233025331746;11.009233025331746;11.009233025331746;11.009233025331746;3.0;1.0;0.0;-0.8244293766420586;53.130000000000024;21.469135256622767;20.268296022307258;0.0;0.0;20.268296022307258;0.0;20.268296022307258;0.0;0.0;6.4208216229260096;0.0;13.847474399381248;0.0;0.0;1.25;4.25;0.4999999999999999;4.914213562373095;1.6380711874576983;4.914213562373095;1.6380711874576983;1.0;0.0;0.0;0.0;0.0;0.0;0.0;0.0;0.0;6.0;1.0986122886681098;0.6931471805599453;0.0;0.0;0.0;0.0;0.0;0.0;0.0;0.0;1.9459101490553132;10.344344;8.025656;0.0;0.0;1.4163;15.965000000000003;0.5;0.0;0.0;0.0;0.0;0.0;0.0;0.0;0.0;0.0;0.25;0.0;0.0;0.0;0.0;0.0;0.0;0.0;0.0;0.0;0.25;2.0;1.0;1.0;0.5;60.44441461931365;2.0;2.0;1.9459101490553132;2.1972245773362196;2.5649493574615367;2.833213344056216;3.2188758248682006;3.4965075614664802;3.8918202981106265;4.174387269895637;4.574710978503383;33.89759936075361;1.6094379124341003;2.1972245773362196;2.833213344056216;3.4965075614664802;4.174387269895637;17.310770665188652;44.062600255999996;4.005690932363636;4.0;0.0;6.0;4.0;2.25;1.0