boiling_point;SMILES;IUPAC_name;InChIKey;SpAbs_A;SpMax_A;SpDiam_A;SpAD_A;SpMAD_A;LogEE_A;VE1_A;VE2_A;VE3_A;VR1_A;VR2_A;VR3_A;nAtom;nHeavyAtom;nH;nC;ATS0dv;ATS1dv;ATS2dv;ATS3dv;ATS4dv;ATS5dv;ATS6dv;ATS7dv;ATS8dv;ATS0d;ATS1d;ATS2d;ATS3d;ATS4d;ATS5d;ATS6d;ATS7d;ATS8d;ATS0s;ATS1s;ATS2s;ATS3s;ATS4s;ATS5s;ATS6s;ATS7s;ATS8s;ATS0Z;ATS1Z;ATS2Z;ATS3Z;ATS4Z;ATS5Z;ATS6Z;ATS7Z;ATS8Z;ATS0m;ATS1m;ATS2m;ATS3m;ATS4m;ATS5m;ATS6m;ATS7m;ATS8m;ATS0v;ATS1v;ATS2v;ATS3v;ATS4v;ATS5v;ATS6v;ATS7v;ATS8v;ATS0se;ATS1se;ATS2se;ATS3se;ATS4se;ATS5se;ATS6se;ATS7se;ATS8se;ATS0pe;ATS1pe;ATS2pe;ATS3pe;ATS4pe;ATS5pe;ATS6pe;ATS7pe;ATS8pe;ATS0are;ATS1are;ATS2are;ATS3are;ATS4are;ATS5are;ATS6are;ATS7are;ATS8are;ATS0p;ATS1p;ATS2p;ATS3p;ATS4p;ATS5p;ATS6p;ATS7p;ATS8p;ATS0i;ATS1i;ATS2i;ATS3i;ATS4i;ATS5i;ATS6i;ATS7i;ATS8i;AATS0dv;AATS1dv;AATS2dv;AATS3dv;AATS0d;AATS1d;AATS2d;AATS3d;AATS0s;AATS1s;AATS2s;AATS3s;AATS0Z;AATS1Z;AATS2Z;AATS3Z;AATS0m;AATS1m;AATS2m;AATS3m;AATS0v;AATS1v;AATS2v;AATS3v;AATS0se;AATS1se;AATS2se;AATS3se;AATS0pe;AATS1pe;AATS2pe;AATS3pe;AATS0are;AATS1are;AATS2are;AATS3are;AATS0p;AATS1p;AATS2p;AATS3p;AATS0i;AATS1i;AATS2i;AATS3i;ATSC0c;ATSC1c;ATSC2c;ATSC3c;ATSC4c;ATSC5c;ATSC6c;ATSC7c;ATSC8c;ATSC0dv;ATSC1dv;ATSC2dv;ATSC3dv;ATSC4dv;ATSC5dv;ATSC6dv;ATSC7dv;ATSC8dv;ATSC0d;ATSC1d;ATSC2d;ATSC3d;ATSC4d;ATSC5d;ATSC6d;ATSC7d;ATSC8d;ATSC0s;ATSC1s;ATSC2s;ATSC3s;ATSC4s;ATSC5s;ATSC6s;ATSC7s;ATSC8s;ATSC0Z;ATSC1Z;ATSC2Z;ATSC3Z;ATSC4Z;ATSC5Z;ATSC6Z;ATSC7Z;ATSC8Z;ATSC0m;ATSC1m;ATSC2m;ATSC3m;ATSC4m;ATSC5m;ATSC6m;ATSC7m;ATSC8m;ATSC0v;ATSC1v;ATSC2v;ATSC3v;ATSC4v;ATSC5v;ATSC6v;ATSC7v;ATSC8v;ATSC0se;ATSC1se;ATSC2se;ATSC3se;ATSC4se;ATSC5se;ATSC6se;ATSC7se;ATSC8se;ATSC0pe;ATSC1pe;ATSC2pe;ATSC3pe;ATSC4pe;ATSC5pe;ATSC6pe;ATSC7pe;ATSC8pe;ATSC0are;ATSC1are;ATSC2are;ATSC3are;ATSC4are;ATSC5are;ATSC6are;ATSC7are;ATSC8are;ATSC0p;ATSC1p;ATSC2p;ATSC3p;ATSC4p;ATSC5p;ATSC6p;ATSC7p;ATSC8p;ATSC0i;ATSC1i;ATSC2i;ATSC3i;ATSC4i;ATSC5i;ATSC6i;ATSC7i;ATSC8i;AATSC0c;AATSC1c;AATSC2c;AATSC3c;AATSC0dv;AATSC1dv;AATSC2dv;AATSC3dv;AATSC0d;AATSC1d;AATSC2d;AATSC3d;AATSC0s;AATSC1s;AATSC2s;AATSC3s;AATSC0Z;AATSC1Z;AATSC2Z;AATSC3Z;AATSC0m;AATSC1m;AATSC2m;AATSC3m;AATSC0v;AATSC1v;AATSC2v;AATSC3v;AATSC0se;AATSC1se;AATSC2se;AATSC3se;AATSC0pe;AATSC1pe;AATSC2pe;AATSC3pe;AATSC0are;AATSC1are;AATSC2are;AATSC3are;AATSC0p;AATSC1p;AATSC2p;AATSC3p;AATSC0i;AATSC1i;AATSC2i;AATSC3i;MATS1c;MATS2c;MATS3c;MATS1dv;MATS2dv;MATS3dv;MATS1s;MATS2s;MATS3s;MATS1Z;MATS2Z;MATS3Z;MATS1m;MATS2m;MATS3m;MATS1v;MATS2v;MATS3v;MATS1se;MATS2se;MATS3se;MATS1pe;MATS2pe;MATS3pe;MATS1are;MATS2are;MATS3are;MATS1p;MATS2p;MATS3p;MATS1i;MATS2i;MATS3i;GATS1c;GATS2c;GATS3c;GATS1dv;GATS2dv;GATS3dv;GATS1s;GATS2s;GATS3s;GATS1Z;GATS2Z;GATS3Z;GATS1m;GATS2m;GATS3m;GATS1v;GATS2v;GATS3v;GATS1se;GATS2se;GATS3se;GATS1pe;GATS2pe;GATS3pe;GATS1are;GATS2are;GATS3are;GATS1p;GATS2p;GATS3p;GATS1i;GATS2i;GATS3i;BCUTc-1h;BCUTc-1l;BCUTdv-1h;BCUTdv-1l;BCUTd-1h;BCUTd-1l;BCUTs-1h;BCUTs-1l;BCUTZ-1h;BCUTZ-1l;BCUTm-1h;BCUTm-1l;BCUTv-1h;BCUTv-1l;BCUTse-1h;BCUTse-1l;BCUTpe-1h;BCUTpe-1l;BCUTare-1h;BCUTare-1l;BCUTp-1h;BCUTp-1l;BCUTi-1h;BCUTi-1l;BalabanJ;SpAbs_DzZ;SpMax_DzZ;SpDiam_DzZ;SpAD_DzZ;SpMAD_DzZ;LogEE_DzZ;VE1_DzZ;VE2_DzZ;VE3_DzZ;VR1_DzZ;VR2_DzZ;VR3_DzZ;SpAbs_Dzm;SpMax_Dzm;SpDiam_Dzm;SpAD_Dzm;SpMAD_Dzm;LogEE_Dzm;VE1_Dzm;VE2_Dzm;VE3_Dzm;VR1_Dzm;VR2_Dzm;VR3_Dzm;SpAbs_Dzv;SpMax_Dzv;SpDiam_Dzv;SpAD_Dzv;SpMAD_Dzv;LogEE_Dzv;VE1_Dzv;VE2_Dzv;VE3_Dzv;VR1_Dzv;VR2_Dzv;VR3_Dzv;SpAbs_Dzse;SpMax_Dzse;SpDiam_Dzse;SpAD_Dzse;SpMAD_Dzse;LogEE_Dzse;VE1_Dzse;VE2_Dzse;VE3_Dzse;VR1_Dzse;VR2_Dzse;VR3_Dzse;SpAbs_Dzpe;SpMax_Dzpe;SpDiam_Dzpe;SpAD_Dzpe;SpMAD_Dzpe;LogEE_Dzpe;VE1_Dzpe;VE2_Dzpe;VE3_Dzpe;VR1_Dzpe;VR2_Dzpe;VR3_Dzpe;SpAbs_Dzare;SpMax_Dzare;SpDiam_Dzare;SpAD_Dzare;SpMAD_Dzare;LogEE_Dzare;VE1_Dzare;VE2_Dzare;VE3_Dzare;VR1_Dzare;VR2_Dzare;VR3_Dzare;SpAbs_Dzp;SpMax_Dzp;SpDiam_Dzp;SpAD_Dzp;SpMAD_Dzp;LogEE_Dzp;VE1_Dzp;VE2_Dzp;VE3_Dzp;VR1_Dzp;VR2_Dzp;VR3_Dzp;SpAbs_Dzi;SpMax_Dzi;SpDiam_Dzi;SpAD_Dzi;SpMAD_Dzi;LogEE_Dzi;VE1_Dzi;VE2_Dzi;VE3_Dzi;VR1_Dzi;VR2_Dzi;VR3_Dzi;BertzCT;nBonds;nBondsO;nBondsS;nBondsKS;RNCG;RPCG;C1SP3;C2SP3;C3SP3;C4SP3;Xc-3d;Xc-4d;Xc-5d;Xc-6d;Xc-3dv;Xc-4dv;Xc-5dv;Xc-6dv;Xpc-4d;Xpc-5d;Xpc-6d;Xpc-4dv;Xpc-5dv;Xpc-6dv;Xp-0d;Xp-1d;Xp-2d;Xp-3d;Xp-4d;Xp-5d;Xp-6d;Xp-7d;AXp-0d;AXp-1d;Xp-0dv;Xp-1dv;Xp-2dv;Xp-3dv;Xp-4dv;Xp-5dv;Xp-6dv;Xp-7dv;AXp-0dv;AXp-1dv;SZ;Sm;Sv;Sse;Spe;Sare;Sp;Si;MZ;Mm;Mv;Mse;Mpe;Mare;Mp;Mi;SpAbs_D;SpMax_D;SpDiam_D;SpAD_D;SpMAD_D;LogEE_D;VE1_D;VE2_D;VE3_D;VR1_D;VR2_D;VR3_D;NsCH3;NssCH2;NsssCH;NssssC;SsCH3;SssCH2;SsssCH;SssssC;MAXsCH3;MINsCH3;ECIndex;ETA_alpha;ETA_shape_p;ETA_shape_y;ETA_shape_x;ETA_beta;AETA_beta;ETA_beta_s;AETA_beta_s;ETA_eta;AETA_eta;ETA_eta_L;AETA_eta_L;ETA_eta_R;AETA_eta_R;ETA_eta_RL;AETA_eta_RL;ETA_eta_B;AETA_eta_B;ETA_eta_BR;AETA_eta_BR;ETA_epsilon_1;ETA_epsilon_2;ETA_epsilon_3;ETA_epsilon_4;ETA_epsilon_5;ETA_dBeta;AETA_dBeta;ETA_psi_1;ETA_dPsi_B;fragCpx;IC0;IC1;IC2;IC3;IC4;IC5;TIC0;TIC1;TIC2;TIC3;TIC4;TIC5;SIC0;SIC1;SIC2;SIC3;SIC4;SIC5;BIC0;BIC1;BIC2;BIC3;BIC4;BIC5;CIC0;CIC1;CIC2;CIC3;CIC4;CIC5;MIC0;MIC1;MIC2;MIC3;MIC4;MIC5;ZMIC0;ZMIC1;ZMIC2;ZMIC3;ZMIC4;ZMIC5;Kier1;Lipinski;GhoseFilter;FilterItLogS;VMcGowan;LabuteASA;PEOE_VSA6;PEOE_VSA7;SMR_VSA4;SMR_VSA5;SlogP_VSA4;SlogP_VSA5;EState_VSA3;EState_VSA4;EState_VSA5;EState_VSA7;EState_VSA8;VSA_EState4;VSA_EState5;VSA_EState7;VSA_EState8;MDEC-11;MID;AMID;MID_C;AMID_C;MPC2;MPC3;MPC4;MPC5;MPC6;MPC7;MPC8;MPC9;MPC10;TMPC10;piPC1;piPC2;piPC3;piPC4;piPC5;piPC6;piPC7;piPC8;piPC9;piPC10;TpiPC10;apol;bpol;nRot;RotRatio;SLogP;SMR;GGI1;GGI2;GGI3;GGI4;GGI5;GGI6;GGI7;GGI8;GGI9;GGI10;JGI1;JGI2;JGI3;JGI4;JGI5;JGI6;JGI7;JGI8;JGI9;JGI10;JGT10;Diameter;Radius;TopoShapeIndex;PetitjeanIndex;Vabc;VAdjMat;MWC01;MWC02;MWC03;MWC04;MWC05;MWC06;MWC07;MWC08;MWC09;MWC10;TMWC10;SRW02;SRW04;SRW06;SRW08;SRW10;TSRW10;MW;AMW;WPath;WPol;Zagreb1;Zagreb2;mZagreb1;mZagreb2
415.0;CCCCCCCCCCCCCCCCCCCCCCCCCC;hexacosane;HMSWAIKSFDFLKN-UHFFFAOYSA-N;32.396867915448695;1.986476715483887;3.9729534309677716;32.396867915448695;1.2460333813634112;4.073914064880604;4.6729016332404445;0.17972698589386324;2.4972916585007265;180.91116400819473;6.958121692622874;6.153517549223726;80.0;26.0;54.0;26.0;98.0;96.0;92.0;88.0;84.0;80.0;76.0;72.0;68.0;152.0;198.0;322.0;384.0;368.0;352.0;336.0;320.0;304.0;116.0;141.75;240.5;306.25;294.0;281.75;269.5;257.25;245.0;990.0;1224.0;1506.0;1520.0;1456.0;1392.0;1328.0;1264.0;1200.0;3805.734602000001;4260.3857769999995;4727.743799999998;4610.240062999999;4413.483333999999;4216.726604999999;4019.969875999999;3823.213146999999;3626.4564179999993;12689.961644752802;16783.69982774125;22800.05284470472;24217.786565362156;23210.98822040703;22204.189875451906;21197.391530496778;20190.593185541653;19183.794840586528;558.8504719999999;572.865028;1108.5247680000002;1569.6800600000001;1506.7951600000001;1443.9102600000003;1381.0253600000003;1318.14046;1255.25556;430.4250000000001;465.5025;873.48;1202.6974999999998;1154.395;1106.0925;1057.79;1009.4875;961.185;423.8600000000001;453.25;856.2;1186.1100000000001;1138.5000000000002;1090.89;1043.28;995.6700000000001;948.0600000000002;96.52049686184603;129.85389274;193.85350676547;219.511784484296;210.4902556249;201.468726765504;192.447197906108;183.425669046712;174.404140187316;13282.206467649448;11438.476478746601;24209.093973603274;37153.7156764561;35674.760521417506;34195.80536637891;32716.85021134031;31237.895056301717;29758.93990126312;1.225;1.2151898734177216;0.5897435897435898;0.39111111111111113;1.9;2.5063291139240507;2.0641025641025643;1.7066666666666668;1.45;1.7943037974683544;1.5416666666666667;1.3611111111111112;12.375;15.49367088607595;9.653846153846153;6.7555555555555555;47.571682525000014;53.928933886075946;30.30604999999999;20.489955835555552;158.62452055941003;212.4518965536867;146.15418490195336;107.63460695716513;6.9856308999999985;7.251456050632912;7.105928000000001;6.976355822222223;5.380312500000001;5.892436708860759;5.599230769230769;5.345322222222221;5.298250000000001;5.737341772151899;5.4884615384615385;5.2716;1.2065062107730753;1.6437201612658228;1.2426506843940384;0.9756079310413155;166.0275808456181;144.79084150312153;155.1864998307902;165.12762522869377;0.11465216955931967;-0.004436660402071274;-0.05561315767233001;-0.00011355071454189009;-4.17198354004094e-06;-7.018372846561913e-08;-5.56323405745407e-10;-2.1148183031172163e-12;-3.878841692284141e-15;66.75;1.859375;-30.8125;-0.359375;-0.375;-0.390625;-0.40625;-0.421875;-0.4375;16.8;1.3099999999999978;-7.160000000000002;-0.15000000000000036;-0.16000000000000028;-0.17000000000000004;-0.1800000000000001;-0.19000000000000017;-0.20000000000000018;5.550000000000001;-0.6306250000000013;-2.372500000000001;0.015625000000000108;0.015000000000000124;0.014375000000000158;0.013750000000000151;0.013125000000000137;0.01250000000000015;438.75;-11.390625;-206.8125;-0.859375;-0.875;-0.890625;-0.90625;-0.921875;-0.9375;2124.7084579499997;-55.16070035062663;-1001.5185594525013;-4.161644059374922;-4.237310314999924;-4.312976570624912;-4.388642826249907;-4.464309081874909;-4.539975337499904;3950.9861058583583;-102.57367774824579;-1862.3665276759693;-7.7387548369732855;-7.87945947037278;-8.02016410377233;-8.160868737171825;-8.301573370571319;-8.442278003970841;0.4162157999999996;-0.010805602499997832;-0.19619060999999777;-0.0008152375000000916;-0.0008300600000000994;-0.0008448825000001046;-0.0008597050000001116;-0.0008745275000001159;-0.000889350000000122;2.1498749999999953;-0.05581406249999414;-1.0133812499999926;-0.0042109375000002405;-0.004287500000000256;-0.004364062500000265;-0.004440625000000281;-0.004517187500000297;-0.004593750000000306;1.5794999999999981;-0.04100624999998906;-0.7445249999999892;-0.003093750000000464;-0.003150000000000503;-0.0032062500000005247;-0.003262500000000553;-0.003318750000000585;-0.003375000000000624;17.662746199099946;-0.45855206478434085;-8.325644896413365;-0.03459583479168382;-0.03522484996971437;-0.03585386514774497;-0.0364828803257754;-0.03711189550380589;-0.037740910681836604;95.94431768227982;-2.490862093674145;-45.22503521519391;-0.18792512366545244;-0.19134194409573468;-0.19475876452601648;-0.19817558495629828;-0.20159240538657985;-0.20500922581686187;0.001433152119491496;-5.6160258254066764e-05;-0.0003564946004636539;-5.046698424084004e-07;0.834375;0.02353639240506329;-0.19751602564102563;-0.0015972222222222223;0.21000000000000002;0.01658227848101263;-0.04589743589743591;-0.0006666666666666683;0.069375;-0.007982594936708878;-0.01520833333333334;6.944444444444492e-05;5.484375;-0.14418512658227847;-1.3257211538461537;-0.0038194444444444443;26.558855724374997;-0.6982367132990712;-6.419990765721162;-0.018496195819444096;49.38732632322948;-1.29840098415501;-11.938246972281854;-0.03439446594210349;0.005202697499999995;-0.00013677977848098523;-0.001257632115384601;-3.6232777777781847e-06;0.02687343749999994;-0.0007065071202530904;-0.006496033653846107;-1.8715277777778846e-05;0.019743749999999977;-0.000519066455696064;-0.004772596153846085;-1.3750000000002064e-05;0.22078432748874932;-0.005804456516257479;-0.053369518566752344;-0.000153759265740817;1.1993039710284976;-0.031529899919925886;-0.2899040718922687;-0.0008352227718464553;-0.039186529810940986;-0.24874861196880033;-0.0003521397593072429;0.028208410373109564;-0.23672332661096707;-0.0019142738243861843;-0.11506443152012796;-0.2192192192192193;0.0010010010010010077;-0.026290165530671858;-0.2417269340346263;-0.0006964229186451408;-0.02629016553067264;-0.2417269340346267;-0.0006964229186451278;-0.026290165530671844;-0.24172693403462628;-0.0006964229186451413;-0.026290165530666616;-0.24172693403462384;-0.0006964229186452197;-0.026290165530669155;-0.24172693403462508;-0.0006964229186451821;-0.026290165530664874;-0.24172693403462314;-0.0006964229186452462;-0.02629016553067274;-0.24172693403462675;-0.0006964229186451299;-0.02629016553066735;-0.24172693403462436;-0.0006964229186452087;1.5517452154863591;1.4616276179719703;0.9707941553055834;1.4981273408239701;1.5097474310957457;1.0046774864752395;1.6666666666666663;1.323053823053823;0.8856856856856855;1.5384615384615383;1.4716195485426256;0.9803102247546692;1.538461538461539;1.4716195485426258;0.9803102247546693;1.5384615384615383;1.4716195485426251;0.980310224754669;1.538461538461538;1.4716195485426251;0.9803102247546692;1.5384615384615385;1.4716195485426256;0.9803102247546692;1.5384615384615385;1.4716195485426256;0.9803102247546692;1.5384615384615388;1.4716195485426258;0.9803102247546694;1.5384615384615394;1.4716195485426264;0.9803102247546697;0.22011189776596754;-0.1977938966458743;2.217836589977681;0.9871436102075689;2.217836589977681;0.9871436102075689;2.0258650153536304;1.3025108352988937;6.220207763897611;5.802239650667392;12.231207763897583;11.813239650667416;20.799734040013103;20.38176592678292;2.966207763897595;2.548239650667404;2.7702077638975986;2.3522396506674017;2.720207763897603;2.302239650667398;1.8902077638976025;1.472239650667403;11.480507763897604;11.062539650667409;2.94691201256248;468.899528890611;234.44976444530556;371.60279313365925;468.8995288906111;18.034597265023503;234.44976444530556;5.010935821097673;0.19272830081144898;2.5671341333192688;135.58633928026129;5.214859203086973;5.865120072687904;468.899528890611;234.44976444530556;371.60279313365925;468.8995288906111;18.034597265023503;234.44976444530556;5.010935821097673;0.19272830081144898;2.5671341333192688;135.58633928026129;5.214859203086973;5.865120072687904;468.899528890611;234.44976444530556;371.60279313365925;468.8995288906111;18.034597265023503;234.44976444530556;5.010935821097673;0.19272830081144898;2.5671341333192688;135.58633928026129;5.214859203086973;5.865120072687904;468.899528890611;234.44976444530556;371.60279313365925;468.8995288906111;18.034597265023503;234.44976444530556;5.010935821097673;0.19272830081144898;2.5671341333192688;135.58633928026129;5.214859203086973;5.865120072687904;468.899528890611;234.44976444530556;371.60279313365925;468.8995288906111;18.034597265023503;234.44976444530556;5.010935821097673;0.19272830081144898;2.5671341333192688;135.58633928026129;5.214859203086973;5.865120072687904;468.899528890611;234.44976444530556;371.60279313365925;468.8995288906111;18.034597265023503;234.44976444530556;5.010935821097673;0.19272830081144898;2.5671341333192688;135.58633928026129;5.214859203086973;5.865120072687904;468.899528890611;234.44976444530556;371.60279313365925;468.8995288906111;18.034597265023503;234.44976444530556;5.010935821097673;0.19272830081144898;2.5671341333192688;135.58633928026129;5.214859203086973;5.865120072687904;468.899528890611;234.44976444530556;371.60279313365925;468.8995288906111;18.034597265023503;234.44976444530556;5.010935821097673;0.19272830081144898;2.5671341333192688;135.58633928026129;5.214859203086973;5.865120072687904;196.07820003461558;79.0;25.0;79.0;79.0;0.04616143845177117;0.018817610040549465;2.0;24.0;0.0;0.0;0.0;0.0;0.0;0.0;0.0;0.0;0.0;0.0;0.0;0.0;0.0;0.0;0.0;0.0;18.970562748477143;12.914213562373096;8.778174593052025;5.957106781186548;4.0355339059327395;2.728553390593274;1.8409902576697326;1.239276695296637;0.7296370287875824;0.5165685424949238;18.970562748477143;12.914213562373096;8.778174593052025;5.957106781186548;4.0355339059327395;2.728553390593274;1.8409902576697326;1.239276695296637;0.7296370287875824;0.5165685424949238;35.0;30.531845808009322;40.629350702218616;76.9715950473416;72.58823529411765;73.52000000000001;47.56097125748502;91.21282043995275;0.4375;0.3816480726001165;0.5078668837777327;0.9621449380917699;0.9073529411764707;0.9190000000000002;0.5945121407185627;1.1401602554994095;468.899528890611;234.44976444530556;371.60279313365925;468.8995288906111;18.034597265023503;234.44976444530556;5.010935821097673;0.19272830081144898;2.5671341333192688;135.58633928026129;5.214859203086973;5.865120072687904;2.0;24.0;0.0;0.0;4.605723403591001;35.394276596409;0.0;0.0;2.3028617017955004;2.3028617017955004;938.0;13.0;0.07692307692307693;0.0;0.0;12.5;0.4807692307692308;12.5;0.4807692307692308;38.69150939897469;1.4881349768836418;12.914213562373096;0.49670052162973444;38.69150939897469;1.4881349768836418;12.914213562373096;0.49670052162973444;0.0;0.0;0.0;0.0;0.43;0.7;0.43;0.43;0.7;-12.5;-0.4807692307692308;0.7142857142857143;0.00028571428571433355;25.0;0.9097361225311662;1.0368902807106744;1.5007347117753251;1.8698864933609212;2.2288587345650743;2.5765896566842352;72.7788898024933;82.95122245685394;120.05877694202601;149.5909194688737;178.30869876520595;206.1271725347388;0.1439016877251235;0.16401488045225046;0.23738560281775298;0.2957778806236544;0.35255996289606417;0.40756389791398634;0.1443159524217652;0.16448704708051867;0.23806898934568757;0.2966293670511377;0.35357491378639794;0.40873719433045336;5.412191972356196;5.285037814176688;4.821193383112037;4.4520416015264415;4.093069360322288;3.7453384382031274;6.7154159095466595;8.24266450344073;10.076187731121163;11.778133697411231;13.430067345610734;15.026484193052543;102.87809030582184;97.30212170123224;93.70802257417131;88.20817014700246;82.09039463990928;75.50115305228542;26.0;0.0;0.0;-10.31734131706445;377.20000000000005;167.86280388774483;167.94719334960556;0.0;0.0;167.94719334960556;0.0;167.94719334960556;0.0;0.0;154.0997189502243;0.0;13.847474399381248;0.0;0.0;35.394276596409;4.605723403591001;0.04;50.82842713497273;1.9549395051912588;50.82842713497273;1.9549395051912588;24.0;23.0;22.0;21.0;20.0;19.0;18.0;17.0;16.0;231.0;3.258096538021482;3.2188758248682006;3.1780538303479458;3.1354942159291497;3.091042453358316;3.044522437723423;2.995732273553991;2.9444389791664403;2.8903717578961645;2.833213344056216;5.44673737166631;79.426822;54.173178;23.0;0.92;10.388599999999993;122.15600000000012;0.5;0.22222222222222232;0.125;0.08000000000000002;0.05555555555555555;0.04081632653061225;0.03125;0.02469135802469135;0.020000000000000004;0.01652892561983471;0.02;0.009259259259259264;0.005434782608695652;0.0036363636363636372;0.0026455026455026454;0.0020408163265306124;0.001644736842105263;0.0013717421124828527;0.0011764705882352944;0.0010330578512396695;0.04824273187041489;25.0;13.0;0.9230769230769231;0.48;458.2520747680315;5.643856189774724;25.0;4.59511985013459;5.262690188904886;5.937536205082426;6.61338421837956;7.292337176173877;7.9714309977693505;8.652248422409102;9.33300038471207;10.014894750110258;116.67264219367611;3.9318256327243257;4.990432586778736;6.1675164908883415;7.399398083331354;8.662331957082475;57.15150475080523;366.4225517280015;4.5802818966000185;2925.0;23.0;98.0;96.0;8.0;6.75