boiling_point;SMILES;IUPAC_name;InChIKey;SpAbs_A;SpMax_A;SpDiam_A;SpAD_A;SpMAD_A;LogEE_A;VE1_A;VE2_A;VE3_A;VR1_A;VR2_A;VR3_A;nAtom;nHeavyAtom;nH;nC;ATS0dv;ATS1dv;ATS2dv;ATS3dv;ATS4dv;ATS5dv;ATS6dv;ATS7dv;ATS8dv;ATS0d;ATS1d;ATS2d;ATS3d;ATS4d;ATS5d;ATS6d;ATS7d;ATS8d;ATS0s;ATS1s;ATS2s;ATS3s;ATS4s;ATS5s;ATS6s;ATS7s;ATS8s;ATS0Z;ATS1Z;ATS2Z;ATS3Z;ATS4Z;ATS5Z;ATS6Z;ATS7Z;ATS8Z;ATS0m;ATS1m;ATS2m;ATS3m;ATS4m;ATS5m;ATS6m;ATS7m;ATS8m;ATS0v;ATS1v;ATS2v;ATS3v;ATS4v;ATS5v;ATS6v;ATS7v;ATS8v;ATS0se;ATS1se;ATS2se;ATS3se;ATS4se;ATS5se;ATS6se;ATS7se;ATS8se;ATS0pe;ATS1pe;ATS2pe;ATS3pe;ATS4pe;ATS5pe;ATS6pe;ATS7pe;ATS8pe;ATS0are;ATS1are;ATS2are;ATS3are;ATS4are;ATS5are;ATS6are;ATS7are;ATS8are;ATS0p;ATS1p;ATS2p;ATS3p;ATS4p;ATS5p;ATS6p;ATS7p;ATS8p;ATS0i;ATS1i;ATS2i;ATS3i;ATS4i;ATS5i;ATS6i;ATS7i;ATS8i;AATS0dv;AATS1dv;AATS2dv;AATS3dv;AATS0d;AATS1d;AATS2d;AATS3d;AATS0s;AATS1s;AATS2s;AATS3s;AATS0Z;AATS1Z;AATS2Z;AATS3Z;AATS0m;AATS1m;AATS2m;AATS3m;AATS0v;AATS1v;AATS2v;AATS3v;AATS0se;AATS1se;AATS2se;AATS3se;AATS0pe;AATS1pe;AATS2pe;AATS3pe;AATS0are;AATS1are;AATS2are;AATS3are;AATS0p;AATS1p;AATS2p;AATS3p;AATS0i;AATS1i;AATS2i;AATS3i;ATSC0c;ATSC1c;ATSC2c;ATSC3c;ATSC4c;ATSC5c;ATSC6c;ATSC7c;ATSC8c;ATSC0dv;ATSC1dv;ATSC2dv;ATSC3dv;ATSC4dv;ATSC5dv;ATSC6dv;ATSC7dv;ATSC8dv;ATSC0d;ATSC1d;ATSC2d;ATSC3d;ATSC4d;ATSC5d;ATSC6d;ATSC7d;ATSC8d;ATSC0s;ATSC1s;ATSC2s;ATSC3s;ATSC4s;ATSC5s;ATSC6s;ATSC7s;ATSC8s;ATSC0Z;ATSC1Z;ATSC2Z;ATSC3Z;ATSC4Z;ATSC5Z;ATSC6Z;ATSC7Z;ATSC8Z;ATSC0m;ATSC1m;ATSC2m;ATSC3m;ATSC4m;ATSC5m;ATSC6m;ATSC7m;ATSC8m;ATSC0v;ATSC1v;ATSC2v;ATSC3v;ATSC4v;ATSC5v;ATSC6v;ATSC7v;ATSC8v;ATSC0se;ATSC1se;ATSC2se;ATSC3se;ATSC4se;ATSC5se;ATSC6se;ATSC7se;ATSC8se;ATSC0pe;ATSC1pe;ATSC2pe;ATSC3pe;ATSC4pe;ATSC5pe;ATSC6pe;ATSC7pe;ATSC8pe;ATSC0are;ATSC1are;ATSC2are;ATSC3are;ATSC4are;ATSC5are;ATSC6are;ATSC7are;ATSC8are;ATSC0p;ATSC1p;ATSC2p;ATSC3p;ATSC4p;ATSC5p;ATSC6p;ATSC7p;ATSC8p;ATSC0i;ATSC1i;ATSC2i;ATSC3i;ATSC4i;ATSC5i;ATSC6i;ATSC7i;ATSC8i;AATSC0c;AATSC1c;AATSC2c;AATSC3c;AATSC0dv;AATSC1dv;AATSC2dv;AATSC3dv;AATSC0d;AATSC1d;AATSC2d;AATSC3d;AATSC0s;AATSC1s;AATSC2s;AATSC3s;AATSC0Z;AATSC1Z;AATSC2Z;AATSC3Z;AATSC0m;AATSC1m;AATSC2m;AATSC3m;AATSC0v;AATSC1v;AATSC2v;AATSC3v;AATSC0se;AATSC1se;AATSC2se;AATSC3se;AATSC0pe;AATSC1pe;AATSC2pe;AATSC3pe;AATSC0are;AATSC1are;AATSC2are;AATSC3are;AATSC0p;AATSC1p;AATSC2p;AATSC3p;AATSC0i;AATSC1i;AATSC2i;AATSC3i;MATS1c;MATS2c;MATS3c;MATS1dv;MATS2dv;MATS3dv;MATS1s;MATS2s;MATS3s;MATS1Z;MATS2Z;MATS3Z;MATS1m;MATS2m;MATS3m;MATS1v;MATS2v;MATS3v;MATS1se;MATS2se;MATS3se;MATS1pe;MATS2pe;MATS3pe;MATS1are;MATS2are;MATS3are;MATS1p;MATS2p;MATS3p;MATS1i;MATS2i;MATS3i;GATS1c;GATS2c;GATS3c;GATS1dv;GATS2dv;GATS3dv;GATS1s;GATS2s;GATS3s;GATS1Z;GATS2Z;GATS3Z;GATS1m;GATS2m;GATS3m;GATS1v;GATS2v;GATS3v;GATS1se;GATS2se;GATS3se;GATS1pe;GATS2pe;GATS3pe;GATS1are;GATS2are;GATS3are;GATS1p;GATS2p;GATS3p;GATS1i;GATS2i;GATS3i;BCUTc-1h;BCUTc-1l;BCUTdv-1h;BCUTdv-1l;BCUTd-1h;BCUTd-1l;BCUTs-1h;BCUTs-1l;BCUTZ-1h;BCUTZ-1l;BCUTm-1h;BCUTm-1l;BCUTv-1h;BCUTv-1l;BCUTse-1h;BCUTse-1l;BCUTpe-1h;BCUTpe-1l;BCUTare-1h;BCUTare-1l;BCUTp-1h;BCUTp-1l;BCUTi-1h;BCUTi-1l;BalabanJ;SpAbs_DzZ;SpMax_DzZ;SpDiam_DzZ;SpAD_DzZ;SpMAD_DzZ;LogEE_DzZ;VE1_DzZ;VE2_DzZ;VE3_DzZ;VR1_DzZ;VR2_DzZ;VR3_DzZ;SpAbs_Dzm;SpMax_Dzm;SpDiam_Dzm;SpAD_Dzm;SpMAD_Dzm;LogEE_Dzm;VE1_Dzm;VE2_Dzm;VE3_Dzm;VR1_Dzm;VR2_Dzm;VR3_Dzm;SpAbs_Dzv;SpMax_Dzv;SpDiam_Dzv;SpAD_Dzv;SpMAD_Dzv;LogEE_Dzv;VE1_Dzv;VE2_Dzv;VE3_Dzv;VR1_Dzv;VR2_Dzv;VR3_Dzv;SpAbs_Dzse;SpMax_Dzse;SpDiam_Dzse;SpAD_Dzse;SpMAD_Dzse;LogEE_Dzse;VE1_Dzse;VE2_Dzse;VE3_Dzse;VR1_Dzse;VR2_Dzse;VR3_Dzse;SpAbs_Dzpe;SpMax_Dzpe;SpDiam_Dzpe;SpAD_Dzpe;SpMAD_Dzpe;LogEE_Dzpe;VE1_Dzpe;VE2_Dzpe;VE3_Dzpe;VR1_Dzpe;VR2_Dzpe;VR3_Dzpe;SpAbs_Dzare;SpMax_Dzare;SpDiam_Dzare;SpAD_Dzare;SpMAD_Dzare;LogEE_Dzare;VE1_Dzare;VE2_Dzare;VE3_Dzare;VR1_Dzare;VR2_Dzare;VR3_Dzare;SpAbs_Dzp;SpMax_Dzp;SpDiam_Dzp;SpAD_Dzp;SpMAD_Dzp;LogEE_Dzp;VE1_Dzp;VE2_Dzp;VE3_Dzp;VR1_Dzp;VR2_Dzp;VR3_Dzp;SpAbs_Dzi;SpMax_Dzi;SpDiam_Dzi;SpAD_Dzi;SpMAD_Dzi;LogEE_Dzi;VE1_Dzi;VE2_Dzi;VE3_Dzi;VR1_Dzi;VR2_Dzi;VR3_Dzi;BertzCT;nBonds;nBondsO;nBondsS;nBondsKS;RNCG;RPCG;C1SP3;C2SP3;C3SP3;C4SP3;Xc-3d;Xc-4d;Xc-5d;Xc-6d;Xc-3dv;Xc-4dv;Xc-5dv;Xc-6dv;Xpc-4d;Xpc-5d;Xpc-6d;Xpc-4dv;Xpc-5dv;Xpc-6dv;Xp-0d;Xp-1d;Xp-2d;Xp-3d;Xp-4d;Xp-5d;Xp-6d;Xp-7d;AXp-0d;AXp-1d;Xp-0dv;Xp-1dv;Xp-2dv;Xp-3dv;Xp-4dv;Xp-5dv;Xp-6dv;Xp-7dv;AXp-0dv;AXp-1dv;SZ;Sm;Sv;Sse;Spe;Sare;Sp;Si;MZ;Mm;Mv;Mse;Mpe;Mare;Mp;Mi;SpAbs_D;SpMax_D;SpDiam_D;SpAD_D;SpMAD_D;LogEE_D;VE1_D;VE2_D;VE3_D;VR1_D;VR2_D;VR3_D;NsCH3;NssCH2;NsssCH;NssssC;SsCH3;SssCH2;SsssCH;SssssC;MAXsCH3;MINsCH3;ECIndex;ETA_alpha;ETA_shape_p;ETA_shape_y;ETA_shape_x;ETA_beta;AETA_beta;ETA_beta_s;AETA_beta_s;ETA_eta;AETA_eta;ETA_eta_L;AETA_eta_L;ETA_eta_R;AETA_eta_R;ETA_eta_RL;AETA_eta_RL;ETA_eta_B;AETA_eta_B;ETA_eta_BR;AETA_eta_BR;ETA_epsilon_1;ETA_epsilon_2;ETA_epsilon_3;ETA_epsilon_4;ETA_epsilon_5;ETA_dBeta;AETA_dBeta;ETA_psi_1;ETA_dPsi_B;fragCpx;IC0;IC1;IC2;IC3;IC4;IC5;TIC0;TIC1;TIC2;TIC3;TIC4;TIC5;SIC0;SIC1;SIC2;SIC3;SIC4;SIC5;BIC0;BIC1;BIC2;BIC3;BIC4;BIC5;CIC0;CIC1;CIC2;CIC3;CIC4;CIC5;MIC0;MIC1;MIC2;MIC3;MIC4;MIC5;ZMIC0;ZMIC1;ZMIC2;ZMIC3;ZMIC4;ZMIC5;Kier1;Lipinski;GhoseFilter;FilterItLogS;VMcGowan;LabuteASA;PEOE_VSA6;PEOE_VSA7;SMR_VSA4;SMR_VSA5;SlogP_VSA4;SlogP_VSA5;EState_VSA3;EState_VSA4;EState_VSA5;EState_VSA7;EState_VSA8;VSA_EState4;VSA_EState5;VSA_EState7;VSA_EState8;MDEC-11;MID;AMID;MID_C;AMID_C;MPC2;MPC3;MPC4;MPC5;MPC6;MPC7;MPC8;MPC9;MPC10;TMPC10;piPC1;piPC2;piPC3;piPC4;piPC5;piPC6;piPC7;piPC8;piPC9;piPC10;TpiPC10;apol;bpol;nRot;RotRatio;SLogP;SMR;GGI1;GGI2;GGI3;GGI4;GGI5;GGI6;GGI7;GGI8;GGI9;GGI10;JGI1;JGI2;JGI3;JGI4;JGI5;JGI6;JGI7;JGI8;JGI9;JGI10;JGT10;Diameter;Radius;TopoShapeIndex;PetitjeanIndex;Vabc;VAdjMat;MWC01;MWC02;MWC03;MWC04;MWC05;MWC06;MWC07;MWC08;MWC09;MWC10;TMWC10;SRW02;SRW04;SRW06;SRW08;SRW10;TSRW10;MW;AMW;WPath;WPol;Zagreb1;Zagreb2;mZagreb1;mZagreb2
58.0;CC(C)C(C)C;2,3-dimethylbutane;ZFFMLCVRJBZUDZ-UHFFFAOYSA-N;6.0;1.9999999999999996;3.999999999999999;5.999999999999999;0.9999999999999999;2.6108454221429835;2.309401076758503;0.38490017945975047;0.32616259301984524;11.530009778701592;1.9216682964502654;1.9341275586240356;20.0;6.0;14.0;6.0;22.0;21.0;14.0;4.0;0.0;0.0;0.0;0.0;0.0;36.0;39.0;72.0;69.0;54.0;36.0;0.0;0.0;0.0;33.55555555555556;39.11111111111111;57.33333333333333;76.99999999999999;78.0;36.0;0.0;0.0;0.0;230.0;264.0;336.0;325.0;174.0;36.0;0.0;0.0;0.0;879.809622;890.8198369999999;1095.7050779999997;929.2637799999998;321.05203199999994;36.578304;0.0;0.0;0.0;2976.2738325290024;3723.8971379339096;4979.3654383364765;5310.781542973933;3686.1911258203554;1119.0147995134894;0.0;0.0;0.0;139.30159200000003;137.349428;253.98203999999998;316.795792;372.377088;241.86470400000002;0.0;0.0;0.0;106.77500000000002;111.05250000000001;198.075;246.01;279.84;174.24;0.0;0.0;0.0;105.26000000000002;108.25;194.58;241.92000000000002;277.20000000000005;174.24;0.0;0.0;0.0;22.95798066788599;29.53412034;42.112552438188004;48.114808443037;40.063450585469994;16.006064574564;0.0;0.0;0.0;3349.613264879486;2777.6874484306;5735.983819663188;7198.538236636438;9222.470705837071;6657.0354728729635;0.0;0.0;0.0;1.1;1.105263157894737;0.3888888888888889;0.08888888888888889;1.8;2.0526315789473686;2.0;1.5333333333333334;1.6777777777777778;2.0584795321637426;1.5925925925925926;1.7111111111111108;11.5;13.894736842105264;9.333333333333334;7.222222222222222;43.9904811;46.88525457894736;30.43625216666666;20.650306222222216;148.81369162645012;195.99458620704786;138.3157066204577;118.01736762164296;6.965079600000001;7.228917263157894;7.055056666666666;7.039906488888889;5.338750000000001;5.844868421052632;5.502083333333333;5.466888888888889;5.263000000000001;5.697368421052632;5.405;5.376;1.1478990333942996;1.5544273863157896;1.1697931232830001;1.0692179654008223;167.4806632439743;146.19407623318946;159.332883879533;159.96751636969864;0.02797628847951357;-0.006965437759425825;0.0028330972767315965;-0.012608105298216443;-0.016821241516488384;0.019573543057642265;0.0;0.0;0.0;17.0;5.75;-10.0;-14.75;1.5;9.0;0.0;0.0;0.0;7.200000000000001;1.5600000000000005;-5.759999999999998;-2.9999999999999996;2.159999999999999;1.4399999999999993;0.0;0.0;0.0;3.133333333333334;-1.8766666666666652;1.0933333333333335;-0.08333333333333193;-2.66;1.9599999999999973;0.0;0.0;0.0;105.0;-12.25;6.0;-68.75;-58.5;81.0;0.0;0.0;0.0;508.4772378;-59.322344409999836;29.05584216000011;-332.9315247499998;-283.2944610600001;392.2538691599997;0.0;0.0;0.0;945.5351364447349;-110.31243258521903;54.03057922541349;-619.1003869578623;-526.798147447781;729.4128195430814;0.0;0.0;0.0;0.09960719999999991;-0.011620839999999638;0.005691840000000222;-0.06521899999999968;-0.055495440000000174;0.07683983999999933;0.0;0.0;0.0;0.5144999999999988;-0.06002500000000224;0.029399999999998372;-0.336875000000001;-0.28664999999999785;0.39690000000000325;0.0;0.0;0.0;0.37799999999999956;-0.04410000000000129;0.02159999999999908;-0.24750000000000066;-0.21059999999999884;0.29160000000000197;0.0;0.0;0.0;4.2269819963658;-0.49314789957600746;0.2415418283637617;-2.767666783334748;-2.355032826546662;3.2608146829107554;0.0;0.0;0.0;22.96103329148577;-2.6787872173400173;1.312059045227752;-15.034009893234742;-12.792575690970638;17.71279711057476;0.0;0.0;0.0;0.0013988144239756785;-0.0003666019873382013;7.869714657587768e-05;-0.0002801801177381432;0.85;0.3026315789473684;-0.2777777777777778;-0.3277777777777778;0.36000000000000004;0.08210526315789476;-0.15999999999999995;-0.06666666666666665;0.1566666666666667;-0.09877192982456133;0.030370370370370374;-0.0018518518518518207;5.25;-0.6447368421052632;0.16666666666666666;-1.5277777777777777;25.42386189;-3.1222286531578862;0.8071067266666697;-7.398478327777774;47.27675682223675;-5.805917504485212;1.5008494229281526;-13.757786376841384;0.004980359999999995;-0.0006116231578947177;0.00015810666666667283;-0.001449311111111104;0.025724999999999942;-0.0031592105263159075;0.0008166666666666214;-0.007486111111111133;0.01889999999999998;-0.0023210526315790153;0.0005999999999999744;-0.005500000000000014;0.21134909981829;-0.02595515260926355;0.006709495232326714;-0.06150370629632773;1.1480516645742884;-0.1409888009126325;0.03644608458965978;-0.33408910873854986;-0.2620805026418397;0.05625989068100002;-0.2002982761228767;0.3560371517027864;-0.32679738562091504;-0.3856209150326797;-0.630459126539753;0.19385342789598106;-0.011820330969266936;-0.12280701754385966;0.031746031746031744;-0.291005291005291;-0.12280701754385931;0.03174603174603186;-0.2910052910052908;-0.1228070175438596;0.031746031746031786;-0.29100529100529104;-0.12280701754385592;0.031746031746033014;-0.2910052910052898;-0.1228070175438645;0.03174603174603006;-0.2910052910052925;-0.12280701754386339;0.031746031746030426;-0.2910052910052921;-0.12280701754385903;0.031746031746031966;-0.29100529100529077;-0.12280701754386016;0.0317460317460316;-0.29100529100529127;1.8028645794439317;0.96552722708057;1.3499016220125626;1.3529411764705883;2.2663398692810457;1.5398692810457517;2.2340425531914887;0.617612293144208;1.167848699763593;1.6666666666666667;1.130952380952381;1.4074074074074074;1.6666666666666672;1.1309523809523812;1.4074074074074077;1.666666666666667;1.1309523809523812;1.4074074074074077;1.666666666666666;1.1309523809523807;1.407407407407407;1.666666666666667;1.1309523809523814;1.4074074074074077;1.666666666666667;1.130952380952381;1.4074074074074074;1.6666666666666667;1.130952380952381;1.4074074074074072;1.6666666666666674;1.1309523809523816;1.407407407407408;0.20915149001497058;-0.21985797180997663;3.111685950670918;0.9865813897322375;3.111685950670918;0.9865813897322375;2.0433927845873803;1.2034641574531755;6.215799269627106;5.787598023483341;12.226799269627097;11.798598023483336;20.795325545742624;20.367124299598878;2.961799269627105;2.5335980234833424;2.765799269627106;2.337598023483339;2.715799269627105;2.2875980234833433;1.8857992696271035;1.4575980234833437;11.476099269627108;11.047898023483343;2.9934972434784735;20.000000000000007;10.000000000000002;14.561552812808834;20.000000000000007;3.3333333333333344;10.000104143518469;2.412090756622109;0.40201512610368484;0.3696682815146602;14.14867599653668;2.3581126660894465;2.138795426796039;20.000000000000007;10.000000000000002;14.561552812808834;20.000000000000007;3.3333333333333344;10.000104143518469;2.412090756622109;0.40201512610368484;0.3696682815146602;14.14867599653668;2.3581126660894465;2.138795426796039;20.000000000000007;10.000000000000002;14.561552812808834;20.000000000000007;3.3333333333333344;10.000104143518469;2.412090756622109;0.40201512610368484;0.3696682815146602;14.14867599653668;2.3581126660894465;2.138795426796039;20.000000000000007;10.000000000000002;14.561552812808834;20.000000000000007;3.3333333333333344;10.000104143518469;2.412090756622109;0.40201512610368484;0.3696682815146602;14.14867599653668;2.3581126660894465;2.138795426796039;20.000000000000007;10.000000000000002;14.561552812808834;20.000000000000007;3.3333333333333344;10.000104143518469;2.412090756622109;0.40201512610368484;0.3696682815146602;14.14867599653668;2.3581126660894465;2.138795426796039;20.000000000000007;10.000000000000002;14.561552812808834;20.000000000000007;3.3333333333333344;10.000104143518469;2.412090756622109;0.40201512610368484;0.3696682815146602;14.14867599653668;2.3581126660894465;2.138795426796039;20.000000000000007;10.000000000000002;14.561552812808834;20.000000000000007;3.3333333333333344;10.000104143518469;2.412090756622109;0.40201512610368484;0.3696682815146602;14.14867599653668;2.3581126660894465;2.138795426796039;20.000000000000007;10.000000000000002;14.561552812808834;20.000000000000007;3.3333333333333344;10.000104143518469;2.412090756622109;0.40201512610368484;0.3696682815146602;14.14867599653668;2.3581126660894465;2.138795426796039;21.019550008653873;19.0;5.0;19.0;19.0;0.1840489559532773;0.08820062914026507;4.0;0.0;2.0;0.0;0.6666666666666666;0.0;0.3333333333333333;0.0;0.6666666666666666;0.0;0.3333333333333333;0.0;1.3333333333333333;0.0;0.0;1.3333333333333333;0.0;0.0;5.1547005383792515;2.6427344100918364;2.4880338717125845;1.3333333333333333;0.0;0.0;0.0;0.0;0.859116756396542;0.5285468820183673;5.1547005383792515;2.6427344100918364;2.4880338717125845;1.3333333333333333;0.0;0.0;0.0;0.0;0.859116756396542;0.5285468820183673;8.333333333333332;7.1749229872616755;9.792794626501122;19.214857975236708;18.078431372549023;18.32;11.589881437125747;22.90702752146923;0.41666666666666663;0.3587461493630838;0.4896397313250561;0.9607428987618354;0.9039215686274511;0.916;0.5794940718562873;1.1453513760734615;20.000000000000007;10.000000000000002;14.561552812808834;20.000000000000007;3.3333333333333344;10.000104143518469;2.412090756622109;0.40201512610368484;0.3696682815146602;14.14867599653668;2.3581126660894465;2.138795426796039;4.0;0.0;2.0;0.0;8.962962962962964;0.0;1.7037037037037033;0.0;2.240740740740741;2.240740740740741;24.0;3.0;0.6666666666666666;0.3333333333333333;0.0;2.5;0.4166666666666667;2.5;0.4166666666666667;6.1307682818044205;1.0217947136340702;2.642734410091836;0.440455735015306;6.1307682818044205;1.0217947136340702;2.642734410091836;0.440455735015306;0.27147915228125896;0.045246525380209825;0.27147915228125896;0.045246525380209825;0.42000000000000004;0.6999999999999998;0.42000000000000004;0.42000000000000004;0.6999999999999998;-2.5;-0.4166666666666667;0.7142857142857144;0.00028571428571444457;5.0;0.8812908992306927;1.1567796494470395;1.5709505944546687;1.5709505944546687;1.5709505944546687;1.5709505944546687;17.625817984613853;23.13559298894079;31.419011889093373;31.419011889093373;31.419011889093373;31.419011889093373;0.20391151353795506;0.26765360830862855;0.3634837415071827;0.3634837415071827;0.3634837415071827;0.3634837415071827;0.20746373294780487;0.2723162402809683;0.369815772393248;0.369815772393248;0.369815772393248;0.369815772393248;3.44063719565667;3.165148445440323;2.750977500432694;2.750977500432694;2.750977500432694;2.750977500432694;6.621890956207768;9.93078633505631;10.348270647623998;10.348270647623998;10.348270647623998;10.348270647623998;23.802045510726657;20.174385663055805;21.10210646629833;21.10210646629833;21.10210646629833;21.10210646629833;6.0;1.0;0.0;-1.4198661124533474;95.40000000000003;40.563961599812586;27.694948798762496;11.835812092322787;11.835812092322787;27.694948798762496;11.835812092322787;27.694948798762496;0.0;11.835812092322787;0.0;0.0;27.694948798762496;0.0;1.7037037037037033;0.0;8.962962962962964;2.2894284851066637;10.523645880122448;1.753940980020408;10.523645880122448;1.753940980020408;6.0;4.0;0.0;0.0;0.0;0.0;0.0;0.0;0.0;21.0;1.791759469228055;1.9459101490553132;1.6094379124341003;0.0;0.0;0.0;0.0;0.0;0.0;0.0;3.091042453358316;19.355102;14.044898;1.0;0.2;2.2984;29.675999999999984;2.0;0.8888888888888893;0.0;0.0;0.0;0.0;0.0;0.0;0.0;0.0;0.4;0.14814814814814822;0.0;0.0;0.0;0.0;0.0;0.0;0.0;0.0;0.5481481481481483;3.0;2.0;0.5;0.3333333333333333;112.33237029088555;3.321928094887362;5.0;3.1354942159291497;3.7612001156935624;4.465908118654584;5.14166355650266;5.8377304471659395;6.52649485957079;7.220373836723949;7.912423121473705;8.605753368395717;63.60704164011006;2.3978952727983707;3.5553480614894135;4.875197323201151;6.244166900663736;7.62608275807238;30.698690316225047;86.109550448;4.3054775223999995;29.0;4.0;22.0;21.0;4.222222222222222;1.4444444444444442