boiling_point;SMILES;IUPAC_name;InChIKey;SpAbs_A;SpMax_A;SpDiam_A;SpAD_A;SpMAD_A;LogEE_A;VE1_A;VE2_A;VE3_A;VR1_A;VR2_A;VR3_A;nAtom;nHeavyAtom;nH;nC;ATS0dv;ATS1dv;ATS2dv;ATS3dv;ATS4dv;ATS5dv;ATS6dv;ATS7dv;ATS8dv;ATS0d;ATS1d;ATS2d;ATS3d;ATS4d;ATS5d;ATS6d;ATS7d;ATS8d;ATS0s;ATS1s;ATS2s;ATS3s;ATS4s;ATS5s;ATS6s;ATS7s;ATS8s;ATS0Z;ATS1Z;ATS2Z;ATS3Z;ATS4Z;ATS5Z;ATS6Z;ATS7Z;ATS8Z;ATS0m;ATS1m;ATS2m;ATS3m;ATS4m;ATS5m;ATS6m;ATS7m;ATS8m;ATS0v;ATS1v;ATS2v;ATS3v;ATS4v;ATS5v;ATS6v;ATS7v;ATS8v;ATS0se;ATS1se;ATS2se;ATS3se;ATS4se;ATS5se;ATS6se;ATS7se;ATS8se;ATS0pe;ATS1pe;ATS2pe;ATS3pe;ATS4pe;ATS5pe;ATS6pe;ATS7pe;ATS8pe;ATS0are;ATS1are;ATS2are;ATS3are;ATS4are;ATS5are;ATS6are;ATS7are;ATS8are;ATS0p;ATS1p;ATS2p;ATS3p;ATS4p;ATS5p;ATS6p;ATS7p;ATS8p;ATS0i;ATS1i;ATS2i;ATS3i;ATS4i;ATS5i;ATS6i;ATS7i;ATS8i;AATS0dv;AATS1dv;AATS2dv;AATS3dv;AATS0d;AATS1d;AATS2d;AATS3d;AATS0s;AATS1s;AATS2s;AATS3s;AATS0Z;AATS1Z;AATS2Z;AATS3Z;AATS0m;AATS1m;AATS2m;AATS3m;AATS0v;AATS1v;AATS2v;AATS3v;AATS0se;AATS1se;AATS2se;AATS3se;AATS0pe;AATS1pe;AATS2pe;AATS3pe;AATS0are;AATS1are;AATS2are;AATS3are;AATS0p;AATS1p;AATS2p;AATS3p;AATS0i;AATS1i;AATS2i;AATS3i;ATSC0c;ATSC1c;ATSC2c;ATSC3c;ATSC4c;ATSC5c;ATSC6c;ATSC7c;ATSC8c;ATSC0dv;ATSC1dv;ATSC2dv;ATSC3dv;ATSC4dv;ATSC5dv;ATSC6dv;ATSC7dv;ATSC8dv;ATSC0d;ATSC1d;ATSC2d;ATSC3d;ATSC4d;ATSC5d;ATSC6d;ATSC7d;ATSC8d;ATSC0s;ATSC1s;ATSC2s;ATSC3s;ATSC4s;ATSC5s;ATSC6s;ATSC7s;ATSC8s;ATSC0Z;ATSC1Z;ATSC2Z;ATSC3Z;ATSC4Z;ATSC5Z;ATSC6Z;ATSC7Z;ATSC8Z;ATSC0m;ATSC1m;ATSC2m;ATSC3m;ATSC4m;ATSC5m;ATSC6m;ATSC7m;ATSC8m;ATSC0v;ATSC1v;ATSC2v;ATSC3v;ATSC4v;ATSC5v;ATSC6v;ATSC7v;ATSC8v;ATSC0se;ATSC1se;ATSC2se;ATSC3se;ATSC4se;ATSC5se;ATSC6se;ATSC7se;ATSC8se;ATSC0pe;ATSC1pe;ATSC2pe;ATSC3pe;ATSC4pe;ATSC5pe;ATSC6pe;ATSC7pe;ATSC8pe;ATSC0are;ATSC1are;ATSC2are;ATSC3are;ATSC4are;ATSC5are;ATSC6are;ATSC7are;ATSC8are;ATSC0p;ATSC1p;ATSC2p;ATSC3p;ATSC4p;ATSC5p;ATSC6p;ATSC7p;ATSC8p;ATSC0i;ATSC1i;ATSC2i;ATSC3i;ATSC4i;ATSC5i;ATSC6i;ATSC7i;ATSC8i;AATSC0c;AATSC1c;AATSC2c;AATSC3c;AATSC0dv;AATSC1dv;AATSC2dv;AATSC3dv;AATSC0d;AATSC1d;AATSC2d;AATSC3d;AATSC0s;AATSC1s;AATSC2s;AATSC3s;AATSC0Z;AATSC1Z;AATSC2Z;AATSC3Z;AATSC0m;AATSC1m;AATSC2m;AATSC3m;AATSC0v;AATSC1v;AATSC2v;AATSC3v;AATSC0se;AATSC1se;AATSC2se;AATSC3se;AATSC0pe;AATSC1pe;AATSC2pe;AATSC3pe;AATSC0are;AATSC1are;AATSC2are;AATSC3are;AATSC0p;AATSC1p;AATSC2p;AATSC3p;AATSC0i;AATSC1i;AATSC2i;AATSC3i;MATS1c;MATS2c;MATS3c;MATS1dv;MATS2dv;MATS3dv;MATS1s;MATS2s;MATS3s;MATS1Z;MATS2Z;MATS3Z;MATS1m;MATS2m;MATS3m;MATS1v;MATS2v;MATS3v;MATS1se;MATS2se;MATS3se;MATS1pe;MATS2pe;MATS3pe;MATS1are;MATS2are;MATS3are;MATS1p;MATS2p;MATS3p;MATS1i;MATS2i;MATS3i;GATS1c;GATS2c;GATS3c;GATS1dv;GATS2dv;GATS3dv;GATS1s;GATS2s;GATS3s;GATS1Z;GATS2Z;GATS3Z;GATS1m;GATS2m;GATS3m;GATS1v;GATS2v;GATS3v;GATS1se;GATS2se;GATS3se;GATS1pe;GATS2pe;GATS3pe;GATS1are;GATS2are;GATS3are;GATS1p;GATS2p;GATS3p;GATS1i;GATS2i;GATS3i;BCUTc-1h;BCUTc-1l;BCUTdv-1h;BCUTdv-1l;BCUTd-1h;BCUTd-1l;BCUTs-1h;BCUTs-1l;BCUTZ-1h;BCUTZ-1l;BCUTm-1h;BCUTm-1l;BCUTv-1h;BCUTv-1l;BCUTse-1h;BCUTse-1l;BCUTpe-1h;BCUTpe-1l;BCUTare-1h;BCUTare-1l;BCUTp-1h;BCUTp-1l;BCUTi-1h;BCUTi-1l;BalabanJ;SpAbs_DzZ;SpMax_DzZ;SpDiam_DzZ;SpAD_DzZ;SpMAD_DzZ;LogEE_DzZ;VE1_DzZ;VE2_DzZ;VE3_DzZ;VR1_DzZ;VR2_DzZ;VR3_DzZ;SpAbs_Dzm;SpMax_Dzm;SpDiam_Dzm;SpAD_Dzm;SpMAD_Dzm;LogEE_Dzm;VE1_Dzm;VE2_Dzm;VE3_Dzm;VR1_Dzm;VR2_Dzm;VR3_Dzm;SpAbs_Dzv;SpMax_Dzv;SpDiam_Dzv;SpAD_Dzv;SpMAD_Dzv;LogEE_Dzv;VE1_Dzv;VE2_Dzv;VE3_Dzv;VR1_Dzv;VR2_Dzv;VR3_Dzv;SpAbs_Dzse;SpMax_Dzse;SpDiam_Dzse;SpAD_Dzse;SpMAD_Dzse;LogEE_Dzse;VE1_Dzse;VE2_Dzse;VE3_Dzse;VR1_Dzse;VR2_Dzse;VR3_Dzse;SpAbs_Dzpe;SpMax_Dzpe;SpDiam_Dzpe;SpAD_Dzpe;SpMAD_Dzpe;LogEE_Dzpe;VE1_Dzpe;VE2_Dzpe;VE3_Dzpe;VR1_Dzpe;VR2_Dzpe;VR3_Dzpe;SpAbs_Dzare;SpMax_Dzare;SpDiam_Dzare;SpAD_Dzare;SpMAD_Dzare;LogEE_Dzare;VE1_Dzare;VE2_Dzare;VE3_Dzare;VR1_Dzare;VR2_Dzare;VR3_Dzare;SpAbs_Dzp;SpMax_Dzp;SpDiam_Dzp;SpAD_Dzp;SpMAD_Dzp;LogEE_Dzp;VE1_Dzp;VE2_Dzp;VE3_Dzp;VR1_Dzp;VR2_Dzp;VR3_Dzp;SpAbs_Dzi;SpMax_Dzi;SpDiam_Dzi;SpAD_Dzi;SpMAD_Dzi;LogEE_Dzi;VE1_Dzi;VE2_Dzi;VE3_Dzi;VR1_Dzi;VR2_Dzi;VR3_Dzi;BertzCT;nBonds;nBondsO;nBondsS;nBondsKS;RNCG;RPCG;C1SP3;C2SP3;C3SP3;C4SP3;Xc-3d;Xc-4d;Xc-5d;Xc-6d;Xc-3dv;Xc-4dv;Xc-5dv;Xc-6dv;Xpc-4d;Xpc-5d;Xpc-6d;Xpc-4dv;Xpc-5dv;Xpc-6dv;Xp-0d;Xp-1d;Xp-2d;Xp-3d;Xp-4d;Xp-5d;Xp-6d;Xp-7d;AXp-0d;AXp-1d;Xp-0dv;Xp-1dv;Xp-2dv;Xp-3dv;Xp-4dv;Xp-5dv;Xp-6dv;Xp-7dv;AXp-0dv;AXp-1dv;SZ;Sm;Sv;Sse;Spe;Sare;Sp;Si;MZ;Mm;Mv;Mse;Mpe;Mare;Mp;Mi;SpAbs_D;SpMax_D;SpDiam_D;SpAD_D;SpMAD_D;LogEE_D;VE1_D;VE2_D;VE3_D;VR1_D;VR2_D;VR3_D;NsCH3;NssCH2;NsssCH;NssssC;SsCH3;SssCH2;SsssCH;SssssC;MAXsCH3;MINsCH3;ECIndex;ETA_alpha;ETA_shape_p;ETA_shape_y;ETA_shape_x;ETA_beta;AETA_beta;ETA_beta_s;AETA_beta_s;ETA_eta;AETA_eta;ETA_eta_L;AETA_eta_L;ETA_eta_R;AETA_eta_R;ETA_eta_RL;AETA_eta_RL;ETA_eta_B;AETA_eta_B;ETA_eta_BR;AETA_eta_BR;ETA_epsilon_1;ETA_epsilon_2;ETA_epsilon_3;ETA_epsilon_4;ETA_epsilon_5;ETA_dBeta;AETA_dBeta;ETA_psi_1;ETA_dPsi_B;fragCpx;IC0;IC1;IC2;IC3;IC4;IC5;TIC0;TIC1;TIC2;TIC3;TIC4;TIC5;SIC0;SIC1;SIC2;SIC3;SIC4;SIC5;BIC0;BIC1;BIC2;BIC3;BIC4;BIC5;CIC0;CIC1;CIC2;CIC3;CIC4;CIC5;MIC0;MIC1;MIC2;MIC3;MIC4;MIC5;ZMIC0;ZMIC1;ZMIC2;ZMIC3;ZMIC4;ZMIC5;Kier1;Lipinski;GhoseFilter;FilterItLogS;VMcGowan;LabuteASA;PEOE_VSA6;PEOE_VSA7;SMR_VSA4;SMR_VSA5;SlogP_VSA4;SlogP_VSA5;EState_VSA3;EState_VSA4;EState_VSA5;EState_VSA7;EState_VSA8;VSA_EState4;VSA_EState5;VSA_EState7;VSA_EState8;MDEC-11;MID;AMID;MID_C;AMID_C;MPC2;MPC3;MPC4;MPC5;MPC6;MPC7;MPC8;MPC9;MPC10;TMPC10;piPC1;piPC2;piPC3;piPC4;piPC5;piPC6;piPC7;piPC8;piPC9;piPC10;TpiPC10;apol;bpol;nRot;RotRatio;SLogP;SMR;GGI1;GGI2;GGI3;GGI4;GGI5;GGI6;GGI7;GGI8;GGI9;GGI10;JGI1;JGI2;JGI3;JGI4;JGI5;JGI6;JGI7;JGI8;JGI9;JGI10;JGT10;Diameter;Radius;TopoShapeIndex;PetitjeanIndex;Vabc;VAdjMat;MWC01;MWC02;MWC03;MWC04;MWC05;MWC06;MWC07;MWC08;MWC09;MWC10;TMWC10;SRW02;SRW04;SRW06;SRW08;SRW10;TSRW10;MW;AMW;WPath;WPol;Zagreb1;Zagreb2;mZagreb1;mZagreb2
282.0;CCCCCCCCCCC(CCCCCCCCCC)CCCCCCCCCC;11-decylhenicosane;BCWYKEQUGMQGAP-UHFFFAOYSA-N;38.59428407107775;2.1210595877055405;4.242119175411082;38.59428407107775;1.244976905518637;4.254299000623407;3.947614933599482;0.1273424172128865;2.5045136937562624;671.675543050742;21.666953001636838;7.641177512576613;95.0;31.0;64.0;31.0;120.0;120.0;120.0;120.0;120.0;120.0;120.0;120.0;120.0;184.0;240.0;396.0;480.0;480.0;480.0;480.0;480.0;480.0;138.52777777777777;169.33333333333331;287.0;371.0;371.0;371.0;371.0;371.0;371.0;1180.0;1464.0;1836.0;1920.0;1920.0;1920.0;1920.0;1920.0;1920.0;4537.215847000004;5102.777261999998;5817.352493999999;5902.701869999999;5902.701870000001;5902.701870000001;5902.701870000001;5902.701870000001;5902.701870000001;15118.383597808757;20048.650500193085;27592.915816455614;30203.950348653758;30203.950348653758;30203.950348653758;30203.950348653758;30203.950348653758;30203.950348653758;663.7376920000002;681.743928;1322.196024;1886.547;1886.547;1886.5470000000003;1886.547;1886.547;1886.547;511.3374999999999;554.115;1042.5149999999999;1449.0749999999998;1449.0749999999998;1449.0749999999998;1449.0749999999998;1449.0749999999998;1449.0749999999998;503.50999999999993;539.5;1021.74;1428.3000000000002;1428.3000000000002;1428.3000000000002;1428.3;1428.3;1428.3000000000002;114.911125910336;154.93383583999997;233.298381774564;270.64586578188;270.64586578188005;270.64586578188005;270.64586578188;270.64586578188;270.64586578188;15765.35476834194;13603.673736325603;28835.571881120974;44368.654651157885;44368.654651157885;44368.654651157885;44368.65465115789;44368.654651157885;44368.65465115789;1.263157894736842;1.2765957446808511;0.6451612903225806;0.4444444444444444;1.936842105263158;2.5531914893617023;2.129032258064516;1.7777777777777777;1.4581871345029238;1.8014184397163118;1.543010752688172;1.374074074074074;12.421052631578947;15.574468085106384;9.870967741935484;7.111111111111111;47.76016681052636;54.28486448936168;31.27608867741935;21.861858777777773;159.1408799769343;213.2835159595009;148.3490097658904;111.8664827727917;6.986712547368422;7.252594978723404;7.108580774193549;6.987211111111111;5.382499999999999;5.894840425531915;5.604919354838709;5.366944444444444;5.300105263157894;5.73936170212766;5.493225806451613;5.290000000000001;1.2095907990561683;1.6482322961702125;1.2542923751320645;1.0023920954884444;165.951102824652;144.71993336516599;155.02995635011277;164.328350559844;0.13536747299765545;-0.006031998760692236;-0.0612958135284285;-0.00034523707286271497;-1.0629772127129116e-05;-8.080571556735687e-08;-3.9184039501652e-07;-5.245571129551714e-06;-4.052657673697733e-05;82.10526315789477;5.916897506925214;-33.174515235457065;0.33240997229916713;0.3324099722991666;0.3324099722991667;0.33240997229917096;0.3324099722991696;0.33240997229917013;22.147368421052633;3.3489196675900246;-7.614847645429367;0.21274238227146716;0.21274238227146702;0.21274238227146708;0.21274238227146725;0.21274238227146725;0.21274238227146702;6.878362573099412;-0.979642967066786;-2.639039704524466;-0.0016620498614960955;-0.0016620498614961648;-0.0016620498614961232;-0.001662049861496137;-0.0016620498614961093;-0.0016620498614960955;522.1052631578946;-11.346260387811686;-223.27977839335188;0.332409972299164;0.33240997229917224;0.332409972299164;0.3324099722991667;0.3324099722991587;0.332409972299158;2528.368019536842;-54.94585848908613;-1081.2636664195015;1.6097419479224087;1.6097419479224377;1.609741947922437;1.609741947922439;1.6097419479224584;1.60974194792246;4701.608297509659;-102.17417013264213;-2010.6559593191287;2.9933838906043917;2.9933838906044232;2.99338389060442;2.99338389060441;2.993383890604292;2.9933838906043073;0.49528993684210465;-0.010763516454297777;-0.2118121289750729;0.00031533739612163957;0.000315337396121638;0.00031533739612163696;0.00031533739612163425;0.0003153373961216413;0.00031533739612164054;2.5583157894736797;-0.055596675900251684;-1.094070914127398;0.0016288088642674517;0.001628808864267466;0.0016288088642674725;0.0016288088642674452;0.001628808864267424;0.0016288088642674387;1.879578947368419;-0.04084653739609775;-0.8038072022160431;0.0011966759002784676;0.001196675900278453;0.0011966759002784676;0.001196675900278458;0.0011966759002784537;0.0011966759002784843;21.01837664358332;-0.45676607986056483;-8.988567651630904;0.013381818745913043;0.013381818745913094;0.013381818745913154;0.013381818745913841;0.013381818745914487;0.013381818745914643;114.17215551455583;-2.4811605952215148;-48.826042142906445;0.07269025181325883;0.07269025181325837;0.07269025181325883;0.07269025181325843;0.07269025181325839;0.07269025181325782;0.001424920768396373;-6.417019958183229e-05;-0.00032954738456144353;-1.2786558254174628e-06;0.8642659279778396;0.06294571815877888;-0.17835760879277993;0.001231148045552471;0.23313019390581718;0.035626804974361964;-0.040940041104458966;0.0007879347491535821;0.07240381655894118;-0.01042173369219985;-0.014188385508196052;-6.155740227763316e-06;5.4958448753462585;-0.12070489774267751;-1.2004289160932897;0.0012311480455524594;26.61440020565097;-0.5845304094583631;-5.8132455183844165;0.005962007214527439;49.490613657996406;-1.0869592567302355;-10.809978275909295;0.011086607002238487;0.00521357828254847;-0.0001145054941946572;-0.0011387748869627575;1.1679162819319983e-06;0.026929639889196628;-0.0005914539989388477;-0.005882101688856979;6.032625423212784e-06;0.019785041551246517;-0.0004345376318733803;-0.004321544097935715;4.432132963994324e-06;0.221246069932456;-0.004859213615537924;-0.04832563253565002;4.956229165152979e-05;1.2018121633111138;-0.026395325481079944;-0.26250560291885183;0.0002692231548639216;-0.045034222958270434;-0.2312741816040207;-0.0008973522274199716;0.07283142389525374;-0.20636889991728694;0.0014245014245014161;-0.14393901022767103;-0.19596184541799438;-8.501955449754729e-05;-0.021962937542896466;-0.21842481789802307;0.00022401433691755947;-0.021962937542896466;-0.21842481789802293;0.00022401433691755869;-0.021962937542897305;-0.21842481789802337;0.0002240143369175455;-0.02196293754290485;-0.21842481789802692;0.00022401433691738958;-0.021962937542886397;-0.21842481789801815;0.00022401433691777268;-0.02196293754288341;-0.21842481789801674;0.0002240143369178361;-0.021962937542896868;-0.21842481789802323;0.00022401433691753537;-0.0219629375428837;-0.2184248178980169;0.00022401433691782968;1.5564021930322482;1.4360585542529778;0.9805265701810477;1.461538461538461;1.5326509511993376;1.0558262108262104;1.7042169699030785;1.2674152958406248;0.8731083149124303;1.5322580645161294;1.451938085327784;1.0002240143369179;1.5322580645161292;1.4519380853277837;1.0002240143369177;1.5322580645161297;1.4519380853277843;1.0002240143369179;1.532258064516129;1.4519380853277841;1.0002240143369177;1.5322580645161286;1.451938085327783;1.0002240143369174;1.5322580645161292;1.4519380853277837;1.0002240143369177;1.5322580645161292;1.451938085327784;1.0002240143369179;1.5322580645161294;1.451938085327784;1.0002240143369177;0.2310651802521663;-0.21258677338265491;3.0296066522322334;0.9871436102075662;3.0296066522322334;0.9871436102075662;2.027561873828589;1.2129487904663203;6.231798168433124;5.789017898258929;12.242798168433113;11.800017898258913;20.811324444548767;20.368544174374527;2.9777981684331203;2.5350178982589116;2.7817981684331152;2.339017898258918;2.731798168433118;2.289017898258907;1.9017981684331111;1.4590178982589201;11.492098168433126;11.049317898258922;3.8248926060717663;537.4842442800725;268.7421221400362;358.2742594454663;537.4842442800724;17.338201428389432;268.7421221400362;5.4446804801809945;0.17563485419938693;2.8260411848284033;182.4926195767394;5.886858696023852;6.3381118430205;537.4842442800725;268.7421221400362;358.2742594454663;537.4842442800724;17.338201428389432;268.7421221400362;5.4446804801809945;0.17563485419938693;2.8260411848284033;182.4926195767394;5.886858696023852;6.3381118430205;537.4842442800725;268.7421221400362;358.2742594454663;537.4842442800724;17.338201428389432;268.7421221400362;5.4446804801809945;0.17563485419938693;2.8260411848284033;182.4926195767394;5.886858696023852;6.3381118430205;537.4842442800725;268.7421221400362;358.2742594454663;537.4842442800724;17.338201428389432;268.7421221400362;5.4446804801809945;0.17563485419938693;2.8260411848284033;182.4926195767394;5.886858696023852;6.3381118430205;537.4842442800725;268.7421221400362;358.2742594454663;537.4842442800724;17.338201428389432;268.7421221400362;5.4446804801809945;0.17563485419938693;2.8260411848284033;182.4926195767394;5.886858696023852;6.3381118430205;537.4842442800725;268.7421221400362;358.2742594454663;537.4842442800724;17.338201428389432;268.7421221400362;5.4446804801809945;0.17563485419938693;2.8260411848284033;182.4926195767394;5.886858696023852;6.3381118430205;537.4842442800725;268.7421221400362;358.2742594454663;537.4842442800724;17.338201428389432;268.7421221400362;5.4446804801809945;0.17563485419938693;2.8260411848284033;182.4926195767394;5.886858696023852;6.3381118430205;537.4842442800725;268.7421221400362;358.2742594454663;537.4842442800724;17.338201428389432;268.7421221400362;5.4446804801809945;0.17563485419938693;2.8260411848284033;182.4926195767394;5.886858696023852;6.3381118430205;246.86456071487643;94.0;30.0;94.0;94.0;0.03899106320895072;0.018050451865856465;3.0;27.0;1.0;0.0;0.2041241452319315;0.0;0.0;0.0;0.2041241452319315;0.0;0.0;0.0;0.4330127018922193;0.6123724356957946;0.7216878364870323;0.4330127018922193;0.6123724356957946;0.7216878364870323;22.669233361226404;15.346065214951233;10.656672010027625;7.397777478867205;5.133701237018431;3.561261175129397;2.4695332345115246;1.711816805412596;0.7312655922976259;0.5115355071650411;22.669233361226404;15.346065214951233;10.656672010027625;7.397777478867205;5.133701237018431;3.561261175129397;2.4695332345115246;1.711816805412596;0.7312655922976259;0.5115355071650411;41.666666666666664;36.37107651319624;48.33848972114801;91.41077931536782;86.2156862745098;87.32;56.55374371257484;108.28926866957369;0.43859649122807015;0.3828534369810131;0.5088262075910317;0.9622187296354507;0.9075335397316822;0.9191578947368421;0.5953025653955246;1.1398870386270914;537.4842442800725;268.7421221400362;358.2742594454663;537.4842442800724;17.338201428389432;268.7421221400362;5.4446804801809945;0.17563485419938693;2.8260411848284033;182.4926195767394;5.886858696023852;6.3381118430205;3.0;27.0;1.0;0.0;6.955573672179342;39.83583911902376;1.041920542130228;0.0;2.318524557393114;2.318524557393114;900.0;15.5;0.0967741935483871;0.03225806451612903;0.0;15.0;0.4838709677419355;15.0;0.4838709677419355;51.846946118818074;1.6724821328650992;15.346065214951233;0.49503436177262045;51.846946118818074;1.6724821328650992;15.346065214951233;0.49503436177262045;0.06814834742186271;0.002198333787802023;0.06814834742186271;0.002198333787802023;0.43052631578947365;0.7;0.43052631578947365;0.43052631578947365;0.7;-15.0;-0.4838709677419355;0.7142857142857143;0.00028571428571433355;30.0;0.9111178649415465;1.1263098182196098;1.8772600450188164;2.69191873229634;3.416290551208114;3.9993766600515923;86.55619716944692;106.99943273086294;178.33970427678756;255.73227956815228;324.5476023647708;379.94078270490127;0.13868156611938284;0.17143600793773692;0.2857384023232329;0.40973788356670043;0.5199947692725643;0.6087465080633061;0.13900457916721157;0.17183531167349;0.28640393585302215;0.41069223306162783;0.521205925881029;0.6101643826260678;5.658737743389401;5.443545790111338;4.692595563312132;3.877936876034608;3.153565057122834;2.5704789482793555;6.719354985899368;9.304025536722188;13.145705881105126;16.76112634245678;19.87306725025428;22.11296627490444;122.63179035441144;111.38318346906348;97.54893777267937;80.27786250219141;62.405603757754434;48.96357973053913;31.0;0.0;0.0;-11.906817664121442;447.6500000000002;199.68751445972788;194.13339541807423;5.917906046161393;5.917906046161393;194.13339541807423;5.917906046161393;194.13339541807423;0.0;5.917906046161393;173.36218381900233;0.0;20.771211599071872;0.0;1.041920542130228;39.83583911902376;6.955573672179342;0.15000000000000005;60.69187395061669;1.957802385503764;60.69187395061669;1.957802385503764;30.0;30.0;30.0;30.0;30.0;30.0;30.0;30.0;30.0;331.0;3.4339872044851463;3.4339872044851463;3.4339872044851463;3.4339872044851463;3.4339872044851463;3.4339872044851463;3.4339872044851463;3.4339872044851463;3.4339872044851463;3.4339872044851463;5.805134968916488;94.444752;64.205248;27.0;0.9;12.19499999999998;145.1709999999999;1.5;0.666666666666667;0.375;0.24000000000000005;0.16666666666666669;0.12244897959183673;0.09375;0.07407407407407407;0.06000000000000001;0.049586776859504134;0.049999999999999996;0.02222222222222223;0.0125;0.008;0.005555555555555555;0.004081632653061224;0.0031249999999999997;0.002469135802469135;0.0020000000000000005;0.0016528925619834713;0.11160643879529163;20.0;10.0;1.0;0.5;544.732000887318;5.906890595608519;30.0;4.795790545596741;5.484796933490655;6.18826412308259;6.892641641172089;7.606387389772652;8.31996102188653;9.0410929746695;9.761520681090504;10.488631840544418;129.57908715130569;4.110873864173311;5.198497031265826;6.418364935936212;7.7057128238944275;9.036106025364846;63.46955468063462;436.5008020480018;4.594745284715808;3960.0;30.0;120.0;120.0;9.86111111111111;8.0