boiling_point;SMILES;IUPAC_name;InChIKey;SpAbs_A;SpMax_A;SpDiam_A;SpAD_A;SpMAD_A;LogEE_A;VE1_A;VE2_A;VE3_A;VR1_A;VR2_A;VR3_A;nAtom;nHeavyAtom;nH;nC;ATS0dv;ATS1dv;ATS2dv;ATS3dv;ATS4dv;ATS5dv;ATS6dv;ATS7dv;ATS8dv;ATS0d;ATS1d;ATS2d;ATS3d;ATS4d;ATS5d;ATS6d;ATS7d;ATS8d;ATS0s;ATS1s;ATS2s;ATS3s;ATS4s;ATS5s;ATS6s;ATS7s;ATS8s;ATS0Z;ATS1Z;ATS2Z;ATS3Z;ATS4Z;ATS5Z;ATS6Z;ATS7Z;ATS8Z;ATS0m;ATS1m;ATS2m;ATS3m;ATS4m;ATS5m;ATS6m;ATS7m;ATS8m;ATS0v;ATS1v;ATS2v;ATS3v;ATS4v;ATS5v;ATS6v;ATS7v;ATS8v;ATS0se;ATS1se;ATS2se;ATS3se;ATS4se;ATS5se;ATS6se;ATS7se;ATS8se;ATS0pe;ATS1pe;ATS2pe;ATS3pe;ATS4pe;ATS5pe;ATS6pe;ATS7pe;ATS8pe;ATS0are;ATS1are;ATS2are;ATS3are;ATS4are;ATS5are;ATS6are;ATS7are;ATS8are;ATS0p;ATS1p;ATS2p;ATS3p;ATS4p;ATS5p;ATS6p;ATS7p;ATS8p;ATS0i;ATS1i;ATS2i;ATS3i;ATS4i;ATS5i;ATS6i;ATS7i;ATS8i;AATS0dv;AATS1dv;AATS2dv;AATS3dv;AATS0d;AATS1d;AATS2d;AATS3d;AATS0s;AATS1s;AATS2s;AATS3s;AATS0Z;AATS1Z;AATS2Z;AATS3Z;AATS0m;AATS1m;AATS2m;AATS3m;AATS0v;AATS1v;AATS2v;AATS3v;AATS0se;AATS1se;AATS2se;AATS3se;AATS0pe;AATS1pe;AATS2pe;AATS3pe;AATS0are;AATS1are;AATS2are;AATS3are;AATS0p;AATS1p;AATS2p;AATS3p;AATS0i;AATS1i;AATS2i;AATS3i;ATSC0c;ATSC1c;ATSC2c;ATSC3c;ATSC4c;ATSC5c;ATSC6c;ATSC7c;ATSC8c;ATSC0dv;ATSC1dv;ATSC2dv;ATSC3dv;ATSC4dv;ATSC5dv;ATSC6dv;ATSC7dv;ATSC8dv;ATSC0d;ATSC1d;ATSC2d;ATSC3d;ATSC4d;ATSC5d;ATSC6d;ATSC7d;ATSC8d;ATSC0s;ATSC1s;ATSC2s;ATSC3s;ATSC4s;ATSC5s;ATSC6s;ATSC7s;ATSC8s;ATSC0Z;ATSC1Z;ATSC2Z;ATSC3Z;ATSC4Z;ATSC5Z;ATSC6Z;ATSC7Z;ATSC8Z;ATSC0m;ATSC1m;ATSC2m;ATSC3m;ATSC4m;ATSC5m;ATSC6m;ATSC7m;ATSC8m;ATSC0v;ATSC1v;ATSC2v;ATSC3v;ATSC4v;ATSC5v;ATSC6v;ATSC7v;ATSC8v;ATSC0se;ATSC1se;ATSC2se;ATSC3se;ATSC4se;ATSC5se;ATSC6se;ATSC7se;ATSC8se;ATSC0pe;ATSC1pe;ATSC2pe;ATSC3pe;ATSC4pe;ATSC5pe;ATSC6pe;ATSC7pe;ATSC8pe;ATSC0are;ATSC1are;ATSC2are;ATSC3are;ATSC4are;ATSC5are;ATSC6are;ATSC7are;ATSC8are;ATSC0p;ATSC1p;ATSC2p;ATSC3p;ATSC4p;ATSC5p;ATSC6p;ATSC7p;ATSC8p;ATSC0i;ATSC1i;ATSC2i;ATSC3i;ATSC4i;ATSC5i;ATSC6i;ATSC7i;ATSC8i;AATSC0c;AATSC1c;AATSC2c;AATSC3c;AATSC0dv;AATSC1dv;AATSC2dv;AATSC3dv;AATSC0d;AATSC1d;AATSC2d;AATSC3d;AATSC0s;AATSC1s;AATSC2s;AATSC3s;AATSC0Z;AATSC1Z;AATSC2Z;AATSC3Z;AATSC0m;AATSC1m;AATSC2m;AATSC3m;AATSC0v;AATSC1v;AATSC2v;AATSC3v;AATSC0se;AATSC1se;AATSC2se;AATSC3se;AATSC0pe;AATSC1pe;AATSC2pe;AATSC3pe;AATSC0are;AATSC1are;AATSC2are;AATSC3are;AATSC0p;AATSC1p;AATSC2p;AATSC3p;AATSC0i;AATSC1i;AATSC2i;AATSC3i;MATS1c;MATS2c;MATS3c;MATS1dv;MATS2dv;MATS3dv;MATS1s;MATS2s;MATS3s;MATS1Z;MATS2Z;MATS3Z;MATS1m;MATS2m;MATS3m;MATS1v;MATS2v;MATS3v;MATS1se;MATS2se;MATS3se;MATS1pe;MATS2pe;MATS3pe;MATS1are;MATS2are;MATS3are;MATS1p;MATS2p;MATS3p;MATS1i;MATS2i;MATS3i;GATS1c;GATS2c;GATS3c;GATS1dv;GATS2dv;GATS3dv;GATS1s;GATS2s;GATS3s;GATS1Z;GATS2Z;GATS3Z;GATS1m;GATS2m;GATS3m;GATS1v;GATS2v;GATS3v;GATS1se;GATS2se;GATS3se;GATS1pe;GATS2pe;GATS3pe;GATS1are;GATS2are;GATS3are;GATS1p;GATS2p;GATS3p;GATS1i;GATS2i;GATS3i;BCUTc-1h;BCUTc-1l;BCUTdv-1h;BCUTdv-1l;BCUTd-1h;BCUTd-1l;BCUTs-1h;BCUTs-1l;BCUTZ-1h;BCUTZ-1l;BCUTm-1h;BCUTm-1l;BCUTv-1h;BCUTv-1l;BCUTse-1h;BCUTse-1l;BCUTpe-1h;BCUTpe-1l;BCUTare-1h;BCUTare-1l;BCUTp-1h;BCUTp-1l;BCUTi-1h;BCUTi-1l;BalabanJ;SpAbs_DzZ;SpMax_DzZ;SpDiam_DzZ;SpAD_DzZ;SpMAD_DzZ;LogEE_DzZ;VE1_DzZ;VE2_DzZ;VE3_DzZ;VR1_DzZ;VR2_DzZ;VR3_DzZ;SpAbs_Dzm;SpMax_Dzm;SpDiam_Dzm;SpAD_Dzm;SpMAD_Dzm;LogEE_Dzm;VE1_Dzm;VE2_Dzm;VE3_Dzm;VR1_Dzm;VR2_Dzm;VR3_Dzm;SpAbs_Dzv;SpMax_Dzv;SpDiam_Dzv;SpAD_Dzv;SpMAD_Dzv;LogEE_Dzv;VE1_Dzv;VE2_Dzv;VE3_Dzv;VR1_Dzv;VR2_Dzv;VR3_Dzv;SpAbs_Dzse;SpMax_Dzse;SpDiam_Dzse;SpAD_Dzse;SpMAD_Dzse;LogEE_Dzse;VE1_Dzse;VE2_Dzse;VE3_Dzse;VR1_Dzse;VR2_Dzse;VR3_Dzse;SpAbs_Dzpe;SpMax_Dzpe;SpDiam_Dzpe;SpAD_Dzpe;SpMAD_Dzpe;LogEE_Dzpe;VE1_Dzpe;VE2_Dzpe;VE3_Dzpe;VR1_Dzpe;VR2_Dzpe;VR3_Dzpe;SpAbs_Dzare;SpMax_Dzare;SpDiam_Dzare;SpAD_Dzare;SpMAD_Dzare;LogEE_Dzare;VE1_Dzare;VE2_Dzare;VE3_Dzare;VR1_Dzare;VR2_Dzare;VR3_Dzare;SpAbs_Dzp;SpMax_Dzp;SpDiam_Dzp;SpAD_Dzp;SpMAD_Dzp;LogEE_Dzp;VE1_Dzp;VE2_Dzp;VE3_Dzp;VR1_Dzp;VR2_Dzp;VR3_Dzp;SpAbs_Dzi;SpMax_Dzi;SpDiam_Dzi;SpAD_Dzi;SpMAD_Dzi;LogEE_Dzi;VE1_Dzi;VE2_Dzi;VE3_Dzi;VR1_Dzi;VR2_Dzi;VR3_Dzi;BertzCT;nBonds;nBondsO;nBondsS;nBondsKS;RNCG;RPCG;C1SP3;C2SP3;C3SP3;C4SP3;Xc-3d;Xc-4d;Xc-5d;Xc-6d;Xc-3dv;Xc-4dv;Xc-5dv;Xc-6dv;Xpc-4d;Xpc-5d;Xpc-6d;Xpc-4dv;Xpc-5dv;Xpc-6dv;Xp-0d;Xp-1d;Xp-2d;Xp-3d;Xp-4d;Xp-5d;Xp-6d;Xp-7d;AXp-0d;AXp-1d;Xp-0dv;Xp-1dv;Xp-2dv;Xp-3dv;Xp-4dv;Xp-5dv;Xp-6dv;Xp-7dv;AXp-0dv;AXp-1dv;SZ;Sm;Sv;Sse;Spe;Sare;Sp;Si;MZ;Mm;Mv;Mse;Mpe;Mare;Mp;Mi;SpAbs_D;SpMax_D;SpDiam_D;SpAD_D;SpMAD_D;LogEE_D;VE1_D;VE2_D;VE3_D;VR1_D;VR2_D;VR3_D;NsCH3;NssCH2;NsssCH;NssssC;SsCH3;SssCH2;SsssCH;SssssC;MAXsCH3;MINsCH3;ECIndex;ETA_alpha;ETA_shape_p;ETA_shape_y;ETA_shape_x;ETA_beta;AETA_beta;ETA_beta_s;AETA_beta_s;ETA_eta;AETA_eta;ETA_eta_L;AETA_eta_L;ETA_eta_R;AETA_eta_R;ETA_eta_RL;AETA_eta_RL;ETA_eta_B;AETA_eta_B;ETA_eta_BR;AETA_eta_BR;ETA_epsilon_1;ETA_epsilon_2;ETA_epsilon_3;ETA_epsilon_4;ETA_epsilon_5;ETA_dBeta;AETA_dBeta;ETA_psi_1;ETA_dPsi_B;fragCpx;IC0;IC1;IC2;IC3;IC4;IC5;TIC0;TIC1;TIC2;TIC3;TIC4;TIC5;SIC0;SIC1;SIC2;SIC3;SIC4;SIC5;BIC0;BIC1;BIC2;BIC3;BIC4;BIC5;CIC0;CIC1;CIC2;CIC3;CIC4;CIC5;MIC0;MIC1;MIC2;MIC3;MIC4;MIC5;ZMIC0;ZMIC1;ZMIC2;ZMIC3;ZMIC4;ZMIC5;Kier1;Lipinski;GhoseFilter;FilterItLogS;VMcGowan;LabuteASA;PEOE_VSA6;PEOE_VSA7;SMR_VSA4;SMR_VSA5;SlogP_VSA4;SlogP_VSA5;EState_VSA3;EState_VSA4;EState_VSA5;EState_VSA7;EState_VSA8;VSA_EState4;VSA_EState5;VSA_EState7;VSA_EState8;MDEC-11;MID;AMID;MID_C;AMID_C;MPC2;MPC3;MPC4;MPC5;MPC6;MPC7;MPC8;MPC9;MPC10;TMPC10;piPC1;piPC2;piPC3;piPC4;piPC5;piPC6;piPC7;piPC8;piPC9;piPC10;TpiPC10;apol;bpol;nRot;RotRatio;SLogP;SMR;GGI1;GGI2;GGI3;GGI4;GGI5;GGI6;GGI7;GGI8;GGI9;GGI10;JGI1;JGI2;JGI3;JGI4;JGI5;JGI6;JGI7;JGI8;JGI9;JGI10;JGT10;Diameter;Radius;TopoShapeIndex;PetitjeanIndex;Vabc;VAdjMat;MWC01;MWC02;MWC03;MWC04;MWC05;MWC06;MWC07;MWC08;MWC09;MWC10;TMWC10;SRW02;SRW04;SRW06;SRW08;SRW10;TSRW10;MW;AMW;WPath;WPol;Zagreb1;Zagreb2;mZagreb1;mZagreb2
141.0;CCCC(CC)CCC;4-ethylheptane;XMROPFQWHHUFFS-UHFFFAOYSA-N;10.49141503978407;2.052880840033717;4.105761680067433;10.491415039784068;1.1657127821982298;3.0084675237920666;2.7134546009137686;0.3014949556570854;0.8928620679012638;27.33561598505588;3.037290665006209;3.2028299510997993;29.0;9.0;20.0;9.0;32.0;32.0;31.0;26.0;16.0;6.0;1.0;0.0;0.0;52.0;64.0;109.0;124.0;115.0;96.0;69.0;36.0;9.0;45.02777777777778;53.83333333333333;83.41666666666667;101.66666666666666;104.24999999999999;105.0;85.0;42.0;9.0;344.0;408.0;494.0;512.0;487.0;382.0;208.0;66.0;9.0;1318.6983689999995;1396.2547279999994;1555.76468;1574.0538319999998;1452.9878229999995;1023.2436519999997;451.2626169999999;103.124448;9.144576;4433.327004362572;5682.86754140501;7494.879359884258;8054.386759641002;7829.2593462017785;6651.9598742465805;4191.07223913795;1620.9320311510196;279.75369987837234;202.2339240000001;202.676768;382.146848;503.07919999999996;503.055484;500.589328;432.86698;244.259712;60.466176;155.32250000000002;164.22;299.29999999999995;386.41999999999996;386.29749999999996;381.31;323.52250000000004;178.86;43.56000000000001;153.05;160.0;293.76000000000005;380.88;380.7900000000001;376.56;320.85;178.2;43.56000000000001;33.992358096980006;44.582086200000006;64.169198587886;72.172230875168;71.16580659031901;64.13294530486601;45.07139101396;20.01965300547;4.001516143640999;4839.50224529498;4076.8058029780004;8503.123503872286;11831.64124030877;11826.17432762032;12000.544215423068;10892.19648674376;6466.26484700487;1664.2588682182407;1.103448275862069;1.1428571428571428;0.5740740740740741;0.3611111111111111;1.793103448275862;2.2857142857142856;2.0185185185185186;1.7222222222222223;1.5526819923371649;1.9226190476190474;1.5447530864197532;1.412037037037037;11.862068965517242;14.571428571428571;9.148148148148149;7.111111111111111;45.47235755172412;49.86624028571426;28.810457037037036;21.861858777777776;152.8733449780197;202.95955505017895;138.79406222007884;111.8664827727917;6.9735835862068996;7.238456;7.076793481481481;6.987211111111111;5.35594827586207;5.865;5.542592592592592;5.366944444444444;5.277586206896552;5.714285714285714;5.440000000000001;5.29;1.172150279206207;1.5922173642857145;1.1883184923682593;1.0023920954884444;166.8793877687924;145.6002072492143;157.465250071709;164.32835055984404;0.04156344538815378;-0.006096273965309513;-0.014233280238127219;0.0019216702005357168;-0.001329809337782312;-0.010131301116855052;-0.0035010634288229515;0.007812626391636681;0.004775708800647751;23.172413793103445;5.2128418549346005;-5.527942925089179;-5.0487514863258;-11.738406658739596;-8.497027348394768;3.6254458977407857;7.648038049940547;2.7395957193816884;7.310344827586206;2.872770511296076;-1.439952437574317;-3.3912009512485133;-4.942925089179549;-1.598097502972651;2.2223543400713446;2.097502972651606;0.5243757431629015;3.187739463601533;-1.0605760338221684;-0.8294688862465316;0.14883075703527532;0.3298652397938962;-0.12128418549346015;-0.6750891795481573;0.24970273483947614;0.3641498216409034;155.17241379310346;-11.890606420927487;-42.39001189060644;0.9512485136741908;-24.04875148632581;-52.49702734839477;-9.512485136741955;40.13079667063022;21.670630202140316;751.4441937931032;-57.5819305588583;-205.27958244233034;4.606554444708678;-116.45945455529127;-254.2242234173603;-46.06554444708695;194.33901563614722;104.94306844351955;1397.342566174485;-107.07605871068861;-381.72614930360487;8.566084696855228;-216.56132874236766;-472.74079920769;-85.66084696855083;361.38169814857395;195.1461170002299;0.14720275862068946;-0.011279904875146952;-0.040212860879903535;0.0009023923900121911;-0.022813607609987782;-0.049800780023781396;-0.009023923900120249;0.038069678953625126;0.02055762663495786;0.7603448275862053;-0.05826397146254694;-0.207711058263973;0.004661117717003088;-0.11783888228299665;-0.25723543400713345;-0.046611177170033574;0.19664090368608977;0.10618608799048804;0.5586206896551719;-0.04280618311534082;-0.15260404280618445;0.003424494649226756;-0.08657550535077314;-0.18898929845422066;-0.03424494649226946;0.14447086801427028;0.07801426872770562;6.246771423200688;-0.478679802544111;-1.7064934960697644;0.03829438420352993;-0.9681299006454702;-2.1133713282322644;-0.38294384203529375;1.6155443335863824;0.8723939401366471;33.932561514511;-2.6001962846370503;-9.26969975473055;0.20801570277091486;-5.258896985678079;-11.479866596671702;-2.080157027709331;8.775662460649565;4.738857728750731;0.0014332222547639233;-0.00021772407018962547;-0.00026357926366902255;2.66898638963294e-05;0.7990487514863257;0.18617292339052144;-0.1023693134275774;-0.07012154842119167;0.25208085612366227;0.10259894683200273;-0.02666578588100587;-0.047100013211784905;0.10992205046901837;-0.03787771549364887;-0.015360534930491325;0.0020670938477121573;5.35077288941736;-0.4246645150331245;-0.7850002201964155;0.01321178491214154;25.911868751486317;-2.0564975199592253;-3.801473748932043;0.06397992284317608;48.184226419809825;-3.824144953953165;-7.069002764881572;0.11897339856743372;0.005075957193816878;-0.00040285374554096257;-0.0007446826088871025;1.253322763905821e-05;0.026218787158145008;-0.002080856123662391;-0.003846501078962463;6.473774606948733e-05;0.01926278240190248;-0.001528792254119315;-0.0028260007927071195;4.756242568370494e-05;0.2154059111448513;-0.01709570723371825;-0.03160173140869934;0.000531866447271249;1.1700883280865861;-0.09286415302275179;-0.17166110656908426;0.002889106982929373;-0.15191228678310498;-0.18390676169931414;0.018622278441193817;0.23299319727891155;-0.1281139770723104;-0.08775628306878303;-0.3445870535714282;-0.13974025106837598;0.018805088141025623;-0.0793650793650795;-0.14670781893004117;0.002469135802469119;-0.07936507936507912;-0.14670781893004103;0.0024691358024691353;-0.07936507936507944;-0.14670781893004128;0.0024691358024691783;-0.07936507936506765;-0.14670781893003645;0.0024691358024699615;-0.07936507936508275;-0.14670781893004256;0.0024691358024688873;-0.07936507936508304;-0.1467078189300426;0.0024691358024688825;-0.07936507936507887;-0.14670781893004098;0.002469135802469188;-0.07936507936508522;-0.14670781893004353;0.0024691358024687346;1.6848240906413336;1.2869083424292451;0.923913391793977;1.3809523809523812;1.6558641975308646;1.3258101851851856;1.9519230769230769;1.030181623931624;0.7421374198717949;1.6111111111111112;1.3366255144032921;1.002469135802469;1.6111111111111116;1.3366255144032928;1.0024691358024695;1.6111111111111116;1.3366255144032926;1.0024691358024693;1.6111111111111116;1.3366255144032926;1.0024691358024693;1.6111111111111112;1.3366255144032924;1.0024691358024693;1.6111111111111107;1.336625514403292;1.0024691358024689;1.6111111111111112;1.3366255144032924;1.0024691358024693;1.611111111111111;1.3366255144032921;1.0024691358024693;0.21018244286081642;-0.20996672151333934;3.029507945184577;0.9871447154965205;3.029507945184577;0.9871447154965205;2.0273114959445797;1.2161356279082507;6.212708393878729;5.792971015894808;12.223708393878733;11.803971015894797;20.792234669994265;20.372497292010326;2.9587083938787426;2.538971015894797;2.7627083938787376;2.342971015894801;2.712708393878742;2.2929710158948042;1.8827083938787386;1.4629710158947997;11.473008393878725;11.053271015894804;3.1753410823958332;47.35978642738239;23.67989321369119;33.777727892735804;47.35978642738239;5.262198491931376;23.679893213869214;2.9428633719354815;0.3269848191039424;0.974022527757261;26.98739900043806;2.9985998889375622;3.1900095377189612;47.35978642738239;23.67989321369119;33.777727892735804;47.35978642738239;5.262198491931376;23.679893213869214;2.9428633719354815;0.3269848191039424;0.974022527757261;26.98739900043806;2.9985998889375622;3.1900095377189612;47.35978642738239;23.67989321369119;33.777727892735804;47.35978642738239;5.262198491931376;23.679893213869214;2.9428633719354815;0.3269848191039424;0.974022527757261;26.98739900043806;2.9985998889375622;3.1900095377189612;47.35978642738239;23.67989321369119;33.777727892735804;47.35978642738239;5.262198491931376;23.679893213869214;2.9428633719354815;0.3269848191039424;0.974022527757261;26.98739900043806;2.9985998889375622;3.1900095377189612;47.35978642738239;23.67989321369119;33.777727892735804;47.35978642738239;5.262198491931376;23.679893213869214;2.9428633719354815;0.3269848191039424;0.974022527757261;26.98739900043806;2.9985998889375622;3.1900095377189612;47.35978642738239;23.67989321369119;33.777727892735804;47.35978642738239;5.262198491931376;23.679893213869214;2.9428633719354815;0.3269848191039424;0.974022527757261;26.98739900043806;2.9985998889375622;3.1900095377189612;47.35978642738239;23.67989321369119;33.777727892735804;47.35978642738239;5.262198491931376;23.679893213869214;2.9428633719354815;0.3269848191039424;0.974022527757261;26.98739900043806;2.9985998889375622;3.1900095377189612;47.35978642738239;23.67989321369119;33.777727892735804;47.35978642738239;5.262198491931376;23.679893213869214;2.9428633719354815;0.3269848191039424;0.974022527757261;26.98739900043806;2.9985998889375622;3.1900095377189612;42.0;28.0;8.0;28.0;28.0;0.1296698965627765;0.060017621481212494;3.0;5.0;1.0;0.0;0.2041241452319315;0.0;0.0;0.0;0.2041241452319315;0.0;0.0;0.0;0.4927992798267444;0.6794123418055915;0.5948613524427101;0.4927992798267444;0.6794123418055915;0.5948613524427101;7.112884175122364;4.346065214951232;2.8516239634379277;1.9711971193069775;1.3690824386889957;0.6969234250586759;0.14433756729740643;0.0;0.7903204639024849;0.543258151868904;7.112884175122364;4.346065214951232;2.8516239634379277;1.9711971193069775;1.3690824386889957;0.6969234250586759;0.14433756729740643;0.0;0.7903204639024849;0.543258151868904;12.33333333333333;10.678461410373828;14.418278037858745;27.87836853605244;26.254901960784316;26.599999999999998;16.985544910179645;33.15289645924176;0.425287356321839;0.3682228072542699;0.49718200130547396;0.9613230529673256;0.9053414469235971;0.9172413793103448;0.5857084451786084;1.1432033261807504;47.35978642738239;23.67989321369119;33.777727892735804;47.35978642738239;5.262198491931376;23.679893213869214;2.9428633719354815;0.3269848191039424;0.974022527757261;26.98739900043806;2.9985998889375622;3.1900095377189612;3.0;5.0;1.0;0.0;6.853796296296297;6.965648148148148;1.0138888888888886;0.0;2.301574074074074;2.276111111111111;70.0;4.5;0.3333333333333333;0.1111111111111111;0.0;4.0;0.4444444444444444;4.0;0.4444444444444444;10.058236339035012;1.1175818154483348;4.346065214951231;0.4828961349945813;10.058236339035012;1.1175818154483348;4.346065214951231;0.4828961349945813;0.0681483474218636;0.007572038602429288;0.0681483474218636;0.007572038602429288;0.4241379310344827;0.7;0.4241379310344827;0.4241379310344827;0.7;-4.0;-0.4444444444444444;0.7142857142857143;0.00028571428571433355;8.0;0.8935711016541907;1.3130468615293815;2.4268260480924715;3.046624960197199;3.331613322489972;3.331613322489972;25.91356194797153;38.078358984352064;70.37795539468168;88.35212384571878;96.61678635220919;96.61678635220919;0.18393878085369605;0.2702865373179379;0.49955445493230927;0.6271380977514907;0.6858020494175447;0.6858020494175447;0.18587583320595183;0.27313291463143774;0.5048152440248289;0.633742465366632;0.6930242048914506;0.6930242048914506;3.9644098934733814;3.5449341335981903;2.4311549470351004;1.8113560349303728;1.5263676726375999;1.5263676726375999;6.664965218283638;11.703288570144553;15.713180546759743;17.38318016693043;17.670448436121546;17.670448436121546;35.68332320783173;27.61103378623542;24.669574652181215;21.161935236886467;20.284462711361737;20.284462711361737;9.0;1.0;0.0;-3.074414700395046;137.67000000000004;59.658787943002416;52.87531971370193;5.917906046161393;5.917906046161393;52.87531971370193;5.917906046161393;52.87531971370193;0.0;5.917906046161393;32.10410811463005;0.0;20.771211599071872;0.0;1.0138888888888886;6.965648148148148;6.853796296296297;0.5646216173286172;16.666118438545602;1.851790937616178;16.666118438545602;1.851790937616178;8.0;8.0;7.0;4.0;1.0;0.0;0.0;0.0;0.0;45.0;2.1972245773362196;2.1972245773362196;2.1972245773362196;2.0794415416798357;1.6094379124341003;0.6931471805599453;0.0;0.0;0.0;0.0;3.828641396489095;28.365859999999998;20.06414;5.0;0.625;3.6128000000000027;43.59700000000001;1.5;0.666666666666667;0.375;0.24000000000000005;0.05555555555555555;0.0;0.0;0.0;0.0;0.0;0.1875;0.08333333333333337;0.046875;0.03428571428571429;0.013888888888888888;0.0;0.0;0.0;0.0;0.0;0.3658829365079366;6.0;3.0;1.0;0.5;164.22032596245742;4.0;8.0;3.4965075614664802;4.174387269895637;4.890349128221754;5.594711379601839;6.318968113746434;7.029087564149662;7.75491027202143;8.46653127661401;9.192685436737461;73.91813800245471;2.833213344056216;3.8918202981106265;5.153291594497779;6.511745329644728;7.914617709040679;35.30468827535003;128.15650064;4.419189677241379;102.0;8.0;32.0;32.0;4.361111111111111;2.5