boiling_point;SMILES;IUPAC_name;InChIKey;SpAbs_A;SpMax_A;SpDiam_A;SpAD_A;SpMAD_A;LogEE_A;VE1_A;VE2_A;VE3_A;VR1_A;VR2_A;VR3_A;nAtom;nHeavyAtom;nH;nC;ATS0dv;ATS1dv;ATS2dv;ATS3dv;ATS4dv;ATS5dv;ATS6dv;ATS7dv;ATS8dv;ATS0d;ATS1d;ATS2d;ATS3d;ATS4d;ATS5d;ATS6d;ATS7d;ATS8d;ATS0s;ATS1s;ATS2s;ATS3s;ATS4s;ATS5s;ATS6s;ATS7s;ATS8s;ATS0Z;ATS1Z;ATS2Z;ATS3Z;ATS4Z;ATS5Z;ATS6Z;ATS7Z;ATS8Z;ATS0m;ATS1m;ATS2m;ATS3m;ATS4m;ATS5m;ATS6m;ATS7m;ATS8m;ATS0v;ATS1v;ATS2v;ATS3v;ATS4v;ATS5v;ATS6v;ATS7v;ATS8v;ATS0se;ATS1se;ATS2se;ATS3se;ATS4se;ATS5se;ATS6se;ATS7se;ATS8se;ATS0pe;ATS1pe;ATS2pe;ATS3pe;ATS4pe;ATS5pe;ATS6pe;ATS7pe;ATS8pe;ATS0are;ATS1are;ATS2are;ATS3are;ATS4are;ATS5are;ATS6are;ATS7are;ATS8are;ATS0p;ATS1p;ATS2p;ATS3p;ATS4p;ATS5p;ATS6p;ATS7p;ATS8p;ATS0i;ATS1i;ATS2i;ATS3i;ATS4i;ATS5i;ATS6i;ATS7i;ATS8i;AATS0dv;AATS1dv;AATS2dv;AATS3dv;AATS0d;AATS1d;AATS2d;AATS3d;AATS0s;AATS1s;AATS2s;AATS3s;AATS0Z;AATS1Z;AATS2Z;AATS3Z;AATS0m;AATS1m;AATS2m;AATS3m;AATS0v;AATS1v;AATS2v;AATS3v;AATS0se;AATS1se;AATS2se;AATS3se;AATS0pe;AATS1pe;AATS2pe;AATS3pe;AATS0are;AATS1are;AATS2are;AATS3are;AATS0p;AATS1p;AATS2p;AATS3p;AATS0i;AATS1i;AATS2i;AATS3i;ATSC0c;ATSC1c;ATSC2c;ATSC3c;ATSC4c;ATSC5c;ATSC6c;ATSC7c;ATSC8c;ATSC0dv;ATSC1dv;ATSC2dv;ATSC3dv;ATSC4dv;ATSC5dv;ATSC6dv;ATSC7dv;ATSC8dv;ATSC0d;ATSC1d;ATSC2d;ATSC3d;ATSC4d;ATSC5d;ATSC6d;ATSC7d;ATSC8d;ATSC0s;ATSC1s;ATSC2s;ATSC3s;ATSC4s;ATSC5s;ATSC6s;ATSC7s;ATSC8s;ATSC0Z;ATSC1Z;ATSC2Z;ATSC3Z;ATSC4Z;ATSC5Z;ATSC6Z;ATSC7Z;ATSC8Z;ATSC0m;ATSC1m;ATSC2m;ATSC3m;ATSC4m;ATSC5m;ATSC6m;ATSC7m;ATSC8m;ATSC0v;ATSC1v;ATSC2v;ATSC3v;ATSC4v;ATSC5v;ATSC6v;ATSC7v;ATSC8v;ATSC0se;ATSC1se;ATSC2se;ATSC3se;ATSC4se;ATSC5se;ATSC6se;ATSC7se;ATSC8se;ATSC0pe;ATSC1pe;ATSC2pe;ATSC3pe;ATSC4pe;ATSC5pe;ATSC6pe;ATSC7pe;ATSC8pe;ATSC0are;ATSC1are;ATSC2are;ATSC3are;ATSC4are;ATSC5are;ATSC6are;ATSC7are;ATSC8are;ATSC0p;ATSC1p;ATSC2p;ATSC3p;ATSC4p;ATSC5p;ATSC6p;ATSC7p;ATSC8p;ATSC0i;ATSC1i;ATSC2i;ATSC3i;ATSC4i;ATSC5i;ATSC6i;ATSC7i;ATSC8i;AATSC0c;AATSC1c;AATSC2c;AATSC3c;AATSC0dv;AATSC1dv;AATSC2dv;AATSC3dv;AATSC0d;AATSC1d;AATSC2d;AATSC3d;AATSC0s;AATSC1s;AATSC2s;AATSC3s;AATSC0Z;AATSC1Z;AATSC2Z;AATSC3Z;AATSC0m;AATSC1m;AATSC2m;AATSC3m;AATSC0v;AATSC1v;AATSC2v;AATSC3v;AATSC0se;AATSC1se;AATSC2se;AATSC3se;AATSC0pe;AATSC1pe;AATSC2pe;AATSC3pe;AATSC0are;AATSC1are;AATSC2are;AATSC3are;AATSC0p;AATSC1p;AATSC2p;AATSC3p;AATSC0i;AATSC1i;AATSC2i;AATSC3i;MATS1c;MATS2c;MATS3c;MATS1dv;MATS2dv;MATS3dv;MATS1s;MATS2s;MATS3s;MATS1Z;MATS2Z;MATS3Z;MATS1m;MATS2m;MATS3m;MATS1v;MATS2v;MATS3v;MATS1se;MATS2se;MATS3se;MATS1pe;MATS2pe;MATS3pe;MATS1are;MATS2are;MATS3are;MATS1p;MATS2p;MATS3p;MATS1i;MATS2i;MATS3i;GATS1c;GATS2c;GATS3c;GATS1dv;GATS2dv;GATS3dv;GATS1s;GATS2s;GATS3s;GATS1Z;GATS2Z;GATS3Z;GATS1m;GATS2m;GATS3m;GATS1v;GATS2v;GATS3v;GATS1se;GATS2se;GATS3se;GATS1pe;GATS2pe;GATS3pe;GATS1are;GATS2are;GATS3are;GATS1p;GATS2p;GATS3p;GATS1i;GATS2i;GATS3i;BCUTc-1h;BCUTc-1l;BCUTdv-1h;BCUTdv-1l;BCUTd-1h;BCUTd-1l;BCUTs-1h;BCUTs-1l;BCUTZ-1h;BCUTZ-1l;BCUTm-1h;BCUTm-1l;BCUTv-1h;BCUTv-1l;BCUTse-1h;BCUTse-1l;BCUTpe-1h;BCUTpe-1l;BCUTare-1h;BCUTare-1l;BCUTp-1h;BCUTp-1l;BCUTi-1h;BCUTi-1l;BalabanJ;SpAbs_DzZ;SpMax_DzZ;SpDiam_DzZ;SpAD_DzZ;SpMAD_DzZ;LogEE_DzZ;VE1_DzZ;VE2_DzZ;VE3_DzZ;VR1_DzZ;VR2_DzZ;VR3_DzZ;SpAbs_Dzm;SpMax_Dzm;SpDiam_Dzm;SpAD_Dzm;SpMAD_Dzm;LogEE_Dzm;VE1_Dzm;VE2_Dzm;VE3_Dzm;VR1_Dzm;VR2_Dzm;VR3_Dzm;SpAbs_Dzv;SpMax_Dzv;SpDiam_Dzv;SpAD_Dzv;SpMAD_Dzv;LogEE_Dzv;VE1_Dzv;VE2_Dzv;VE3_Dzv;VR1_Dzv;VR2_Dzv;VR3_Dzv;SpAbs_Dzse;SpMax_Dzse;SpDiam_Dzse;SpAD_Dzse;SpMAD_Dzse;LogEE_Dzse;VE1_Dzse;VE2_Dzse;VE3_Dzse;VR1_Dzse;VR2_Dzse;VR3_Dzse;SpAbs_Dzpe;SpMax_Dzpe;SpDiam_Dzpe;SpAD_Dzpe;SpMAD_Dzpe;LogEE_Dzpe;VE1_Dzpe;VE2_Dzpe;VE3_Dzpe;VR1_Dzpe;VR2_Dzpe;VR3_Dzpe;SpAbs_Dzare;SpMax_Dzare;SpDiam_Dzare;SpAD_Dzare;SpMAD_Dzare;LogEE_Dzare;VE1_Dzare;VE2_Dzare;VE3_Dzare;VR1_Dzare;VR2_Dzare;VR3_Dzare;SpAbs_Dzp;SpMax_Dzp;SpDiam_Dzp;SpAD_Dzp;SpMAD_Dzp;LogEE_Dzp;VE1_Dzp;VE2_Dzp;VE3_Dzp;VR1_Dzp;VR2_Dzp;VR3_Dzp;SpAbs_Dzi;SpMax_Dzi;SpDiam_Dzi;SpAD_Dzi;SpMAD_Dzi;LogEE_Dzi;VE1_Dzi;VE2_Dzi;VE3_Dzi;VR1_Dzi;VR2_Dzi;VR3_Dzi;BertzCT;nBonds;nBondsO;nBondsS;nBondsKS;RNCG;RPCG;C1SP3;C2SP3;C3SP3;C4SP3;Xc-3d;Xc-4d;Xc-5d;Xc-6d;Xc-3dv;Xc-4dv;Xc-5dv;Xc-6dv;Xpc-4d;Xpc-5d;Xpc-6d;Xpc-4dv;Xpc-5dv;Xpc-6dv;Xp-0d;Xp-1d;Xp-2d;Xp-3d;Xp-4d;Xp-5d;Xp-6d;Xp-7d;AXp-0d;AXp-1d;Xp-0dv;Xp-1dv;Xp-2dv;Xp-3dv;Xp-4dv;Xp-5dv;Xp-6dv;Xp-7dv;AXp-0dv;AXp-1dv;SZ;Sm;Sv;Sse;Spe;Sare;Sp;Si;MZ;Mm;Mv;Mse;Mpe;Mare;Mp;Mi;SpAbs_D;SpMax_D;SpDiam_D;SpAD_D;SpMAD_D;LogEE_D;VE1_D;VE2_D;VE3_D;VR1_D;VR2_D;VR3_D;NsCH3;NssCH2;NsssCH;NssssC;SsCH3;SssCH2;SsssCH;SssssC;MAXsCH3;MINsCH3;ECIndex;ETA_alpha;ETA_shape_p;ETA_shape_y;ETA_shape_x;ETA_beta;AETA_beta;ETA_beta_s;AETA_beta_s;ETA_eta;AETA_eta;ETA_eta_L;AETA_eta_L;ETA_eta_R;AETA_eta_R;ETA_eta_RL;AETA_eta_RL;ETA_eta_B;AETA_eta_B;ETA_eta_BR;AETA_eta_BR;ETA_epsilon_1;ETA_epsilon_2;ETA_epsilon_3;ETA_epsilon_4;ETA_epsilon_5;ETA_dBeta;AETA_dBeta;ETA_psi_1;ETA_dPsi_B;fragCpx;IC0;IC1;IC2;IC3;IC4;IC5;TIC0;TIC1;TIC2;TIC3;TIC4;TIC5;SIC0;SIC1;SIC2;SIC3;SIC4;SIC5;BIC0;BIC1;BIC2;BIC3;BIC4;BIC5;CIC0;CIC1;CIC2;CIC3;CIC4;CIC5;MIC0;MIC1;MIC2;MIC3;MIC4;MIC5;ZMIC0;ZMIC1;ZMIC2;ZMIC3;ZMIC4;ZMIC5;Kier1;Lipinski;GhoseFilter;FilterItLogS;VMcGowan;LabuteASA;PEOE_VSA6;PEOE_VSA7;SMR_VSA4;SMR_VSA5;SlogP_VSA4;SlogP_VSA5;EState_VSA3;EState_VSA4;EState_VSA5;EState_VSA7;EState_VSA8;VSA_EState4;VSA_EState5;VSA_EState7;VSA_EState8;MDEC-11;MID;AMID;MID_C;AMID_C;MPC2;MPC3;MPC4;MPC5;MPC6;MPC7;MPC8;MPC9;MPC10;TMPC10;piPC1;piPC2;piPC3;piPC4;piPC5;piPC6;piPC7;piPC8;piPC9;piPC10;TpiPC10;apol;bpol;nRot;RotRatio;SLogP;SMR;GGI1;GGI2;GGI3;GGI4;GGI5;GGI6;GGI7;GGI8;GGI9;GGI10;JGI1;JGI2;JGI3;JGI4;JGI5;JGI6;JGI7;JGI8;JGI9;JGI10;JGT10;Diameter;Radius;TopoShapeIndex;PetitjeanIndex;Vabc;VAdjMat;MWC01;MWC02;MWC03;MWC04;MWC05;MWC06;MWC07;MWC08;MWC09;MWC10;TMWC10;SRW02;SRW04;SRW06;SRW08;SRW10;TSRW10;MW;AMW;WPath;WPol;Zagreb1;Zagreb2;mZagreb1;mZagreb2
143.1;CCCCC(CC)CC;3-ethylheptane;PSVQKOKKLWHNRP-UHFFFAOYSA-N;10.56518691386183;2.0420789618979067;4.0841579237958126;10.56518691386183;1.1739096570957588;3.0084565841760864;2.7137888814485818;0.3015320979387313;0.8929852540219242;28.013996955141852;3.1126663283490945;3.2273437608684343;29.0;9.0;20.0;9.0;32.0;32.0;30.0;24.0;16.0;8.0;2.0;0.0;0.0;52.0;64.0;108.0;124.0;110.0;96.0;66.0;36.0;18.0;45.02777777777778;53.83333333333333;83.33333333333333;102.16666666666666;105.83333333333333;99.0;74.0;48.0;18.0;344.0;408.0;494.0;512.0;462.0;352.0;224.0;96.0;18.0;1318.6983689999995;1396.2547279999997;1555.7646799999998;1574.0538319999998;1331.9218139999998;956.6975079999999;563.1840499999998;169.670592;18.289152;4433.327004362572;5682.86754140501;7494.879359884258;8054.386759641002;7604.131932762557;6150.042642609051;4136.4459526988;2122.84926278855;559.5073997567447;202.2339240000001;202.67676799999998;382.146848;503.0792;503.03176800000006;498.19432000000006;372.42452000000003;246.65472;120.932352;155.32250000000002;164.22;299.29999999999995;386.41999999999996;386.175;376.69000000000005;280.08500000000004;183.48000000000002;87.12;153.05;160.0;293.76;380.88;380.70000000000005;372.6;277.38;182.16000000000003;87.12;33.992358096980006;44.5820862;64.169198587886;72.172230875168;70.15938230546999;60.11935687396;42.076299155168;24.033241436375995;8.003032287282;4839.50224529498;4076.8058029780004;8503.123503872286;11831.64124030877;11820.707414931872;12191.314841291161;9233.404531213968;6275.494221136776;3328.5177364364813;1.103448275862069;1.1428571428571428;0.5555555555555556;0.3333333333333333;1.793103448275862;2.2857142857142856;2.0;1.7222222222222223;1.5526819923371649;1.9226190476190474;1.5432098765432098;1.4189814814814814;11.862068965517242;14.571428571428571;9.148148148148149;7.111111111111111;45.47235755172412;49.86624028571428;28.810457037037033;21.861858777777776;152.8733449780197;202.95955505017895;138.79406222007884;111.8664827727917;6.9735835862068996;7.238455999999999;7.076793481481481;6.987211111111112;5.35594827586207;5.865;5.542592592592592;5.366944444444444;5.277586206896552;5.714285714285714;5.4399999999999995;5.29;1.172150279206207;1.5922173642857143;1.1883184923682593;1.0023920954884444;166.8793877687924;145.6002072492143;157.465250071709;164.32835055984404;0.04154367557127328;-0.006106518379290313;-0.013920859285532747;0.0031553960823912652;-0.009781316938192536;0.00030209057391203387;-0.0005959207390621429;-0.003380186859659996;0.0095554777597978;23.172413793103445;5.2128418549346;-6.527942925089178;-7.048751486325802;-8.42806183115339;-3.186682520808561;-1.42449464922711;4.33769322235434;5.479191438763378;7.310344827586206;2.8727705112960757;-2.4399524375743167;-3.391200951248514;-2.4946492271105827;-1.5980975029726512;0.2497027348394775;2.097502972651606;1.048751486325803;3.187739463601533;-1.0605760338221684;-0.9128022195798648;0.6488307570352754;-0.489100277447483;-0.11553705905667894;0.5642092746730079;-0.9571938168846614;0.7282996432818069;155.17241379310346;-11.890606420927487;-42.39001189060644;0.9512485136741926;-49.04875148632581;-5.94530321046372;-6.183115338882267;-6.420927467300817;43.34126040428063;751.4441937931032;-57.5819305588583;-205.2795824423304;4.6065544447087206;-237.5254635552912;-28.790965279429358;-29.94260389060652;-31.09424250178369;209.8861368870391;1397.342566174485;-107.0760587106886;-381.7261493036048;8.566084696855057;-441.6887421815903;-53.538029355344264;-55.679550529557986;-57.82107170377181;390.2922340004598;0.14720275862068946;-0.011279904875146952;-0.04021286087990354;0.0009023923900121893;-0.04652960760998777;-0.005639952437575091;-0.005865550535078135;-0.006091148632581186;0.04111525326991572;0.7603448275862053;-0.05826397146254694;-0.20771105826397301;0.004661117717003116;-0.24033888228299644;-0.0291319857312711;-0.030297265160521877;-0.03146254458977265;0.21237217598097607;0.5586206896551719;-0.04280618311534082;-0.15260404280618445;0.003424494649226749;-0.17657550535077302;-0.02140309155766852;-0.022259215219975183;-0.023115338882281886;0.15602853745541123;6.246771423200688;-0.478679802544111;-1.7064934960697644;0.03829438420352982;-1.97455418549447;-0.2393399012720584;-0.24891349732294088;-0.2584870933738233;1.7447878802732941;33.932561514511;-2.6001962846370503;-9.26969975473055;0.20801570277091486;-10.725809674127072;-1.3000981423183386;-1.3521020680110678;-1.404105993703797;9.477715457501462;0.001432540536940458;-0.00021808994211751118;-0.0002577936904728287;4.382494558876757e-05;0.7990487514863257;0.1861729233905214;-0.12088783194609588;-0.09789932619896947;0.25208085612366227;0.1025989468320027;-0.04518430439952438;-0.04710001321178492;0.10992205046901837;-0.03787771549364887;-0.016903744807034535;0.009011538292156602;5.35077288941736;-0.4246645150331245;-0.7850002201964155;0.013211784912141564;25.911868751486317;-2.0564975199592253;-3.8014737489320445;0.06397992284317668;48.184226419809825;-3.8241449539531644;-7.069002764881571;0.11897339856743135;0.005075957193816878;-0.00040285374554096257;-0.0007446826088871026;1.2533227639058186e-05;0.026218787158145008;-0.002080856123662391;-0.0038465010789624633;6.473774606948772e-05;0.01926278240190248;-0.001528792254119315;-0.0028260007927071195;4.756242568370485e-05;0.2154059111448513;-0.01709570723371825;-0.03160173140869934;0.0005318664472712475;1.1700883280865861;-0.09286415302275179;-0.17166110656908426;0.002889106982929373;-0.1522399795982708;-0.1799555990390404;0.030592464547192853;0.23299319727891152;-0.15128968253968253;-0.12251984126984129;-0.3445870535714282;-0.15377938034188027;0.08198116987179485;-0.0793650793650795;-0.14670781893004117;0.002469135802469123;-0.07936507936507912;-0.1467078189300411;0.0024691358024691583;-0.07936507936507943;-0.14670781893004126;0.002469135802469129;-0.07936507936506765;-0.14670781893003648;0.0024691358024699567;-0.07936507936508275;-0.14670781893004256;0.0024691358024689024;-0.07936507936508304;-0.1467078189300426;0.0024691358024688777;-0.07936507936507887;-0.14670781893004098;0.002469135802469181;-0.07936507936508522;-0.14670781893004353;0.0024691358024687346;1.6849056560037723;1.2838483659073878;0.9199758536122731;1.3809523809523812;1.678240740740741;1.3593750000000002;1.9519230769230769;1.0437366452991452;0.6811398237179487;1.6111111111111112;1.3366255144032921;1.002469135802469;1.6111111111111116;1.3366255144032928;1.0024691358024698;1.6111111111111116;1.3366255144032926;1.0024691358024693;1.6111111111111116;1.3366255144032926;1.0024691358024693;1.6111111111111112;1.3366255144032924;1.0024691358024693;1.6111111111111107;1.3366255144032917;1.0024691358024689;1.6111111111111112;1.3366255144032924;1.0024691358024693;1.611111111111111;1.3366255144032921;1.0024691358024693;0.20943171314017658;-0.20953406136763023;3.029462787386026;0.9871443129228405;3.029462787386026;0.9871443129228405;2.027513258186703;1.2179281613511603;6.212059199728052;5.793564973387567;12.223059199728041;11.804564973387565;20.79158547584356;20.373091249503098;2.958059199728048;2.5395649733875607;2.762059199728047;2.3435649733875654;2.712059199728047;2.2935649733875647;1.8820591997280514;1.4635649733875622;11.472359199728041;11.053864973387558;3.0922461946023914;48.19756924519962;24.098784622599812;35.85217662934821;48.197569245199624;5.355285471688847;24.098784622716696;2.945680637498837;0.3272978486109819;0.974979391040883;26.792427711564482;2.9769364123960536;3.1827587838588043;48.19756924519962;24.098784622599812;35.85217662934821;48.197569245199624;5.355285471688847;24.098784622716696;2.945680637498837;0.3272978486109819;0.974979391040883;26.792427711564482;2.9769364123960536;3.1827587838588043;48.19756924519962;24.098784622599812;35.85217662934821;48.197569245199624;5.355285471688847;24.098784622716696;2.945680637498837;0.3272978486109819;0.974979391040883;26.792427711564482;2.9769364123960536;3.1827587838588043;48.19756924519962;24.098784622599812;35.85217662934821;48.197569245199624;5.355285471688847;24.098784622716696;2.945680637498837;0.3272978486109819;0.974979391040883;26.792427711564482;2.9769364123960536;3.1827587838588043;48.19756924519962;24.098784622599812;35.85217662934821;48.197569245199624;5.355285471688847;24.098784622716696;2.945680637498837;0.3272978486109819;0.974979391040883;26.792427711564482;2.9769364123960536;3.1827587838588043;48.19756924519962;24.098784622599812;35.85217662934821;48.197569245199624;5.355285471688847;24.098784622716696;2.945680637498837;0.3272978486109819;0.974979391040883;26.792427711564482;2.9769364123960536;3.1827587838588043;48.19756924519962;24.098784622599812;35.85217662934821;48.197569245199624;5.355285471688847;24.098784622716696;2.945680637498837;0.3272978486109819;0.974979391040883;26.792427711564482;2.9769364123960536;3.1827587838588043;48.19756924519962;24.098784622599812;35.85217662934821;48.197569245199624;5.355285471688847;24.098784622716696;2.945680637498837;0.3272978486109819;0.974979391040883;26.792427711564482;2.9769364123960536;3.1827587838588043;44.0;28.0;8.0;28.0;28.0;0.1296849411108902;0.05999595861308345;3.0;5.0;1.0;0.0;0.2041241452319315;0.0;0.0;0.0;0.2041241452319315;0.0;0.0;0.0;0.5525858577612694;0.5948613524427102;0.45052378514530367;0.5525858577612694;0.5948613524427102;0.45052378514530367;7.112884175122364;4.346065214951232;2.8247505099002517;2.12062636466832;1.1897227048854202;0.5773502691896257;0.28867513459481287;0.0;0.7903204639024849;0.543258151868904;7.112884175122364;4.346065214951232;2.8247505099002517;2.12062636466832;1.1897227048854202;0.5773502691896257;0.28867513459481287;0.0;0.7903204639024849;0.543258151868904;12.33333333333333;10.678461410373828;14.418278037858745;27.87836853605244;26.254901960784316;26.599999999999998;16.985544910179645;33.15289645924176;0.425287356321839;0.3682228072542699;0.49718200130547396;0.9613230529673256;0.9053414469235971;0.9172413793103448;0.5857084451786084;1.1432033261807504;48.19756924519962;24.098784622599812;35.85217662934821;48.197569245199624;5.355285471688847;24.098784622716696;2.945680637498837;0.3272978486109819;0.974979391040883;26.792427711564482;2.9769364123960536;3.1827587838588043;3.0;5.0;1.0;0.0;6.857175925925926;6.971574074074074;1.0045833333333332;0.0;2.295462962962963;2.26625;74.0;4.5;0.3333333333333333;0.1111111111111111;0.0;4.0;0.4444444444444444;4.0;0.4444444444444444;10.025930134938182;1.1139922372153537;4.346065214951231;0.4828961349945813;10.025930134938182;1.1139922372153537;4.346065214951231;0.4828961349945813;0.0681483474218636;0.007572038602429288;0.0681483474218636;0.007572038602429288;0.4241379310344827;0.7;0.4241379310344827;0.4241379310344827;0.7;-4.0;-0.4444444444444444;0.7142857142857143;0.00028571428571433355;8.0;0.8935711016541907;1.3130468615293815;2.4007954445695936;2.968533149628564;3.3485176326855948;3.53850987421411;25.91356194797153;38.078358984352064;69.62306789251821;86.08746133922835;97.10701134788225;102.61678635220919;0.18393878085369605;0.2702865373179379;0.4941961376500914;0.6110631459048369;0.6892817481262423;0.728391049236945;0.18587583320595183;0.27313291463143774;0.4994004985057407;0.6174982288093672;0.6965405481757919;0.7360617078590043;3.9644098934733814;3.5449341335981903;2.4571855505579783;1.8894478454990078;1.509463362441977;1.319471120913462;6.664965218283638;11.703288570144553;15.400526967846453;17.01804889131502;18.446315567005634;18.63782774646637;35.68332320783173;27.61103378623542;25.383636614339437;22.076176438184653;19.302029124931668;18.5893034043772;9.0;1.0;0.0;-3.074414700395046;137.67000000000004;59.6587879430024;52.87531971370191;5.917906046161393;5.917906046161393;52.87531971370191;5.917906046161393;52.87531971370191;0.0;5.917906046161393;32.10410811463005;0.0;20.771211599071872;0.0;1.0045833333333332;6.971574074074074;6.857175925925926;0.5723571212766659;16.664207352713916;1.8515785947459906;16.664207352713916;1.8515785947459906;8.0;8.0;6.0;4.0;2.0;0.0;0.0;0.0;0.0;45.0;2.1972245773362196;2.1972245773362196;2.1972245773362196;1.9459101490553132;1.6094379124341003;1.0986122886681098;0.0;0.0;0.0;0.0;3.828641396489095;28.365859999999998;20.06414;5.0;0.625;3.6128000000000027;43.59700000000001;1.5;0.666666666666667;0.375;0.16000000000000003;0.1111111111111111;0.0;0.0;0.0;0.0;0.0;0.1875;0.08333333333333337;0.046875;0.026666666666666672;0.027777777777777776;0.0;0.0;0.0;0.0;0.0;0.37215277777777783;6.0;3.0;1.0;0.5;164.22032596245742;4.0;8.0;3.4965075614664802;4.174387269895637;4.875197323201151;5.579729825986222;6.289715570908998;7.00033446027523;7.71289096149013;8.4252971767117;9.13873695311649;73.69279710305203;2.833213344056216;3.8918202981106265;5.153291594497779;6.499787040655854;7.884952945759814;35.26306522308029;128.15650064;4.419189677241379;104.0;8.0;32.0;32.0;4.361111111111111;2.5