boiling_point;SMILES;IUPAC_name;InChIKey;SpAbs_A;SpMax_A;SpDiam_A;SpAD_A;SpMAD_A;LogEE_A;VE1_A;VE2_A;VE3_A;VR1_A;VR2_A;VR3_A;nAtom;nHeavyAtom;nH;nC;ATS0dv;ATS1dv;ATS2dv;ATS3dv;ATS4dv;ATS5dv;ATS6dv;ATS7dv;ATS8dv;ATS0d;ATS1d;ATS2d;ATS3d;ATS4d;ATS5d;ATS6d;ATS7d;ATS8d;ATS0s;ATS1s;ATS2s;ATS3s;ATS4s;ATS5s;ATS6s;ATS7s;ATS8s;ATS0Z;ATS1Z;ATS2Z;ATS3Z;ATS4Z;ATS5Z;ATS6Z;ATS7Z;ATS8Z;ATS0m;ATS1m;ATS2m;ATS3m;ATS4m;ATS5m;ATS6m;ATS7m;ATS8m;ATS0v;ATS1v;ATS2v;ATS3v;ATS4v;ATS5v;ATS6v;ATS7v;ATS8v;ATS0se;ATS1se;ATS2se;ATS3se;ATS4se;ATS5se;ATS6se;ATS7se;ATS8se;ATS0pe;ATS1pe;ATS2pe;ATS3pe;ATS4pe;ATS5pe;ATS6pe;ATS7pe;ATS8pe;ATS0are;ATS1are;ATS2are;ATS3are;ATS4are;ATS5are;ATS6are;ATS7are;ATS8are;ATS0p;ATS1p;ATS2p;ATS3p;ATS4p;ATS5p;ATS6p;ATS7p;ATS8p;ATS0i;ATS1i;ATS2i;ATS3i;ATS4i;ATS5i;ATS6i;ATS7i;ATS8i;AATS0dv;AATS1dv;AATS2dv;AATS3dv;AATS0d;AATS1d;AATS2d;AATS3d;AATS0s;AATS1s;AATS2s;AATS3s;AATS0Z;AATS1Z;AATS2Z;AATS3Z;AATS0m;AATS1m;AATS2m;AATS3m;AATS0v;AATS1v;AATS2v;AATS3v;AATS0se;AATS1se;AATS2se;AATS3se;AATS0pe;AATS1pe;AATS2pe;AATS3pe;AATS0are;AATS1are;AATS2are;AATS3are;AATS0p;AATS1p;AATS2p;AATS3p;AATS0i;AATS1i;AATS2i;AATS3i;ATSC0c;ATSC1c;ATSC2c;ATSC3c;ATSC4c;ATSC5c;ATSC6c;ATSC7c;ATSC8c;ATSC0dv;ATSC1dv;ATSC2dv;ATSC3dv;ATSC4dv;ATSC5dv;ATSC6dv;ATSC7dv;ATSC8dv;ATSC0d;ATSC1d;ATSC2d;ATSC3d;ATSC4d;ATSC5d;ATSC6d;ATSC7d;ATSC8d;ATSC0s;ATSC1s;ATSC2s;ATSC3s;ATSC4s;ATSC5s;ATSC6s;ATSC7s;ATSC8s;ATSC0Z;ATSC1Z;ATSC2Z;ATSC3Z;ATSC4Z;ATSC5Z;ATSC6Z;ATSC7Z;ATSC8Z;ATSC0m;ATSC1m;ATSC2m;ATSC3m;ATSC4m;ATSC5m;ATSC6m;ATSC7m;ATSC8m;ATSC0v;ATSC1v;ATSC2v;ATSC3v;ATSC4v;ATSC5v;ATSC6v;ATSC7v;ATSC8v;ATSC0se;ATSC1se;ATSC2se;ATSC3se;ATSC4se;ATSC5se;ATSC6se;ATSC7se;ATSC8se;ATSC0pe;ATSC1pe;ATSC2pe;ATSC3pe;ATSC4pe;ATSC5pe;ATSC6pe;ATSC7pe;ATSC8pe;ATSC0are;ATSC1are;ATSC2are;ATSC3are;ATSC4are;ATSC5are;ATSC6are;ATSC7are;ATSC8are;ATSC0p;ATSC1p;ATSC2p;ATSC3p;ATSC4p;ATSC5p;ATSC6p;ATSC7p;ATSC8p;ATSC0i;ATSC1i;ATSC2i;ATSC3i;ATSC4i;ATSC5i;ATSC6i;ATSC7i;ATSC8i;AATSC0c;AATSC1c;AATSC2c;AATSC3c;AATSC0dv;AATSC1dv;AATSC2dv;AATSC3dv;AATSC0d;AATSC1d;AATSC2d;AATSC3d;AATSC0s;AATSC1s;AATSC2s;AATSC3s;AATSC0Z;AATSC1Z;AATSC2Z;AATSC3Z;AATSC0m;AATSC1m;AATSC2m;AATSC3m;AATSC0v;AATSC1v;AATSC2v;AATSC3v;AATSC0se;AATSC1se;AATSC2se;AATSC3se;AATSC0pe;AATSC1pe;AATSC2pe;AATSC3pe;AATSC0are;AATSC1are;AATSC2are;AATSC3are;AATSC0p;AATSC1p;AATSC2p;AATSC3p;AATSC0i;AATSC1i;AATSC2i;AATSC3i;MATS1c;MATS2c;MATS3c;MATS1dv;MATS2dv;MATS3dv;MATS1s;MATS2s;MATS3s;MATS1Z;MATS2Z;MATS3Z;MATS1m;MATS2m;MATS3m;MATS1v;MATS2v;MATS3v;MATS1se;MATS2se;MATS3se;MATS1pe;MATS2pe;MATS3pe;MATS1are;MATS2are;MATS3are;MATS1p;MATS2p;MATS3p;MATS1i;MATS2i;MATS3i;GATS1c;GATS2c;GATS3c;GATS1dv;GATS2dv;GATS3dv;GATS1s;GATS2s;GATS3s;GATS1Z;GATS2Z;GATS3Z;GATS1m;GATS2m;GATS3m;GATS1v;GATS2v;GATS3v;GATS1se;GATS2se;GATS3se;GATS1pe;GATS2pe;GATS3pe;GATS1are;GATS2are;GATS3are;GATS1p;GATS2p;GATS3p;GATS1i;GATS2i;GATS3i;BCUTc-1h;BCUTc-1l;BCUTdv-1h;BCUTdv-1l;BCUTd-1h;BCUTd-1l;BCUTs-1h;BCUTs-1l;BCUTZ-1h;BCUTZ-1l;BCUTm-1h;BCUTm-1l;BCUTv-1h;BCUTv-1l;BCUTse-1h;BCUTse-1l;BCUTpe-1h;BCUTpe-1l;BCUTare-1h;BCUTare-1l;BCUTp-1h;BCUTp-1l;BCUTi-1h;BCUTi-1l;BalabanJ;SpAbs_DzZ;SpMax_DzZ;SpDiam_DzZ;SpAD_DzZ;SpMAD_DzZ;LogEE_DzZ;VE1_DzZ;VE2_DzZ;VE3_DzZ;VR1_DzZ;VR2_DzZ;VR3_DzZ;SpAbs_Dzm;SpMax_Dzm;SpDiam_Dzm;SpAD_Dzm;SpMAD_Dzm;LogEE_Dzm;VE1_Dzm;VE2_Dzm;VE3_Dzm;VR1_Dzm;VR2_Dzm;VR3_Dzm;SpAbs_Dzv;SpMax_Dzv;SpDiam_Dzv;SpAD_Dzv;SpMAD_Dzv;LogEE_Dzv;VE1_Dzv;VE2_Dzv;VE3_Dzv;VR1_Dzv;VR2_Dzv;VR3_Dzv;SpAbs_Dzse;SpMax_Dzse;SpDiam_Dzse;SpAD_Dzse;SpMAD_Dzse;LogEE_Dzse;VE1_Dzse;VE2_Dzse;VE3_Dzse;VR1_Dzse;VR2_Dzse;VR3_Dzse;SpAbs_Dzpe;SpMax_Dzpe;SpDiam_Dzpe;SpAD_Dzpe;SpMAD_Dzpe;LogEE_Dzpe;VE1_Dzpe;VE2_Dzpe;VE3_Dzpe;VR1_Dzpe;VR2_Dzpe;VR3_Dzpe;SpAbs_Dzare;SpMax_Dzare;SpDiam_Dzare;SpAD_Dzare;SpMAD_Dzare;LogEE_Dzare;VE1_Dzare;VE2_Dzare;VE3_Dzare;VR1_Dzare;VR2_Dzare;VR3_Dzare;SpAbs_Dzp;SpMax_Dzp;SpDiam_Dzp;SpAD_Dzp;SpMAD_Dzp;LogEE_Dzp;VE1_Dzp;VE2_Dzp;VE3_Dzp;VR1_Dzp;VR2_Dzp;VR3_Dzp;SpAbs_Dzi;SpMax_Dzi;SpDiam_Dzi;SpAD_Dzi;SpMAD_Dzi;LogEE_Dzi;VE1_Dzi;VE2_Dzi;VE3_Dzi;VR1_Dzi;VR2_Dzi;VR3_Dzi;BertzCT;nBonds;nBondsO;nBondsS;nBondsKS;RNCG;RPCG;C1SP3;C2SP3;C3SP3;C4SP3;Xc-3d;Xc-4d;Xc-5d;Xc-6d;Xc-3dv;Xc-4dv;Xc-5dv;Xc-6dv;Xpc-4d;Xpc-5d;Xpc-6d;Xpc-4dv;Xpc-5dv;Xpc-6dv;Xp-0d;Xp-1d;Xp-2d;Xp-3d;Xp-4d;Xp-5d;Xp-6d;Xp-7d;AXp-0d;AXp-1d;Xp-0dv;Xp-1dv;Xp-2dv;Xp-3dv;Xp-4dv;Xp-5dv;Xp-6dv;Xp-7dv;AXp-0dv;AXp-1dv;SZ;Sm;Sv;Sse;Spe;Sare;Sp;Si;MZ;Mm;Mv;Mse;Mpe;Mare;Mp;Mi;SpAbs_D;SpMax_D;SpDiam_D;SpAD_D;SpMAD_D;LogEE_D;VE1_D;VE2_D;VE3_D;VR1_D;VR2_D;VR3_D;NsCH3;NssCH2;NsssCH;NssssC;SsCH3;SssCH2;SsssCH;SssssC;MAXsCH3;MINsCH3;ECIndex;ETA_alpha;ETA_shape_p;ETA_shape_y;ETA_shape_x;ETA_beta;AETA_beta;ETA_beta_s;AETA_beta_s;ETA_eta;AETA_eta;ETA_eta_L;AETA_eta_L;ETA_eta_R;AETA_eta_R;ETA_eta_RL;AETA_eta_RL;ETA_eta_B;AETA_eta_B;ETA_eta_BR;AETA_eta_BR;ETA_epsilon_1;ETA_epsilon_2;ETA_epsilon_3;ETA_epsilon_4;ETA_epsilon_5;ETA_dBeta;AETA_dBeta;ETA_psi_1;ETA_dPsi_B;fragCpx;IC0;IC1;IC2;IC3;IC4;IC5;TIC0;TIC1;TIC2;TIC3;TIC4;TIC5;SIC0;SIC1;SIC2;SIC3;SIC4;SIC5;BIC0;BIC1;BIC2;BIC3;BIC4;BIC5;CIC0;CIC1;CIC2;CIC3;CIC4;CIC5;MIC0;MIC1;MIC2;MIC3;MIC4;MIC5;ZMIC0;ZMIC1;ZMIC2;ZMIC3;ZMIC4;ZMIC5;Kier1;Lipinski;GhoseFilter;FilterItLogS;VMcGowan;LabuteASA;PEOE_VSA6;PEOE_VSA7;SMR_VSA4;SMR_VSA5;SlogP_VSA4;SlogP_VSA5;EState_VSA3;EState_VSA4;EState_VSA5;EState_VSA7;EState_VSA8;VSA_EState4;VSA_EState5;VSA_EState7;VSA_EState8;MDEC-11;MID;AMID;MID_C;AMID_C;MPC2;MPC3;MPC4;MPC5;MPC6;MPC7;MPC8;MPC9;MPC10;TMPC10;piPC1;piPC2;piPC3;piPC4;piPC5;piPC6;piPC7;piPC8;piPC9;piPC10;TpiPC10;apol;bpol;nRot;RotRatio;SLogP;SMR;GGI1;GGI2;GGI3;GGI4;GGI5;GGI6;GGI7;GGI8;GGI9;GGI10;JGI1;JGI2;JGI3;JGI4;JGI5;JGI6;JGI7;JGI8;JGI9;JGI10;JGT10;Diameter;Radius;TopoShapeIndex;PetitjeanIndex;Vabc;VAdjMat;MWC01;MWC02;MWC03;MWC04;MWC05;MWC06;MWC07;MWC08;MWC09;MWC10;TMWC10;SRW02;SRW04;SRW06;SRW08;SRW10;TSRW10;MW;AMW;WPath;WPol;Zagreb1;Zagreb2;mZagreb1;mZagreb2
140.0;CCCC(C)C(C)CC;3,4-dimethylheptane;MAKRYGRRIKSDES-UHFFFAOYSA-N;10.312845350263805;2.1119907362530643;4.2239814725061295;10.312845350263805;1.1458717055848673;3.0189210117363765;2.7130672113786805;0.3014519123754089;0.8927192915339528;26.874089745580726;2.9860099717311916;3.1858021002845214;29.0;9.0;20.0;9.0;34.0;35.0;33.0;24.0;13.0;5.0;1.0;0.0;0.0;54.0;65.0;114.0;129.0;118.0;99.0;60.0;27.0;9.0;46.30555555555556;55.02777777777778;84.0;109.58333333333333;123.58333333333331;111.0;70.0;33.0;9.0;344.0;408.0;519.0;567.0;501.0;336.0;169.0;57.0;9.0;1318.6983689999995;1396.2547279999997;1676.830689;1761.6659849999996;1407.6125339999996;844.7760749999998;375.571897;93.979872;9.144576;4433.327004362572;5682.86754140501;7720.006773323481;8781.431404717756;8385.80286427846;6204.6689290482;3409.4013076220476;1341.1783312726475;279.75369987837234;202.2339240000001;202.676768;382.170564;505.497924;565.892952;558.63678;370.00579600000003;183.79353600000002;60.466176;155.32250000000002;164.22;299.4225;391.1625;434.35499999999996;420.12749999999994;275.3425;135.3;43.56000000000001;153.05;160.0;293.85;384.93;428.22;416.07;273.33000000000004;134.64000000000001;43.56000000000001;33.992358096980006;44.582086200000006;65.175622872735;77.192243590923;78.174486880017;63.11444873275201;37.056286439413;16.018136861829;4.001516143640999;4839.50224529498;4076.805802978;8508.590416560735;11646.337527129124;13294.195657282018;13850.106796820954;9418.708244393612;4802.0059787866285;1664.2588682182407;1.1724137931034482;1.25;0.6111111111111112;0.3333333333333333;1.8620689655172413;2.3214285714285716;2.111111111111111;1.7916666666666667;1.5967432950191571;1.965277777777778;1.5555555555555556;1.5219907407407407;11.862068965517242;14.571428571428571;9.61111111111111;7.875;45.47235755172412;49.86624028571428;31.052420166666664;24.467583124999994;152.8733449780197;202.95955505017895;142.96308839487926;121.96432506552439;6.9735835862068996;7.238456;7.077232666666667;7.020804500000001;5.35594827586207;5.865;5.5448611111111115;5.432812500000001;5.277586206896552;5.714285714285714;5.441666666666667;5.34625;1.172150279206207;1.5922173642857145;1.2069559791247224;1.072114494318375;166.8793877687924;145.6002072492143;157.56648919556918;161.75468787679338;0.040852753216442196;-0.007512851227534684;-0.006941007362364115;-4.850454006534357e-05;-0.014905633669222759;-0.0018460785125437636;0.0029016512925209887;0.003148273589651462;0.004777773821337121;25.172413793103445;8.212841854934599;-6.8382877526753845;-13.669441141498215;-11.998810939357906;-0.136741973840665;4.196195005945304;4.908442330558859;2.7395957193816884;9.310344827586206;3.8727705112960757;-3.888228299643283;-5.83947681331748;-2.970273483947681;0.37455410225921604;1.697978596908443;1.5731272294887044;0.5243757431629015;3.6609195402298855;-1.6180142687277055;-0.2996432818073722;0.8217399920729291;-1.0471660721363456;-0.2914189456995637;0.2520808561236625;-0.05499405469678936;0.4069560047562426;155.17241379310346;-11.89060642092749;-17.390011890606438;-20.600475624256852;-73.92984542211654;-9.274673008323404;15.368608799048769;18.460166468489906;21.670630202140316;751.4441937931032;-57.58193055885832;-84.21357344233036;-99.76069469322225;-358.0156532497027;-44.91390583590979;74.42464524732443;89.39594719262769;104.94306844351955;1397.342566174485;-107.07605871068867;-156.5987358643822;-185.509271716268;-665.745395033706;-83.51932579433704;138.395805883565;166.235581148344;195.1461170002299;0.14720275862068946;-0.011279904875146947;-0.01649686087990356;-0.019542435196194148;-0.0701328085612362;-0.008798325802617201;0.0145792770511282;0.017512052318667266;0.02055762663495786;0.7603448275862053;-0.05826397146254694;-0.08521105826397325;-0.10094233055885958;-0.3622562425683708;-0.045445897740782795;0.07530618311534079;0.09045481569560172;0.10618608799048804;0.5586206896551719;-0.04280618311534082;-0.06260404280618459;-0.0741617122473255;-0.26614744351961955;-0.033388822829962785;0.05532699167657708;0.06645659928656467;0.07801426872770562;6.246771423200688;-0.4786798025441111;-0.7000692112207644;-0.8293127579076761;-2.976191672318029;-0.3733702459844114;0.6186936447882649;0.7431503934497354;0.8723939401366471;33.932561514511;-2.6001962846370494;-3.8027870662815544;-4.504840063133454;-16.166720399729705;-2.0281531020166015;3.360753697893299;4.036804731898833;4.738857728750731;0.0014087156281531793;-0.00026831611526909586;-0.00012853717337711325;-6.736741675742162e-07;0.868014268727705;0.29331578053337853;-0.1266349583828775;-0.1898533491874752;0.3210463733650416;0.1383132325462884;-0.07200422777117191;-0.08110384462940945;0.1262386048355133;-0.057786223883132336;-0.005548949663099485;0.01141305544545735;5.35077288941736;-0.42466451503312463;-0.32203725723345256;-0.28611771700356736;25.911868751486317;-2.0564975199592257;-1.559510619302414;-1.3855652040725313;48.184226419809825;-3.8241449539531667;-2.899976590081152;-2.5765176627259443;0.005075957193816878;-0.00040285374554096235;-0.00030549742370191774;-0.00027142271105825205;0.026218787158145008;-0.002080856123662391;-0.0015779825604439492;-0.0014019768133174942;0.01926278240190248;-0.001528792254119315;-0.0011593341260404553;-0.001030023781212854;0.2154059111448513;-0.01709570723371825;-0.012964244652236378;-0.011518232748717723;1.1700883280865861;-0.09286415302275176;-0.07042198270891767;-0.06256722309907575;-0.19046861545850616;-0.09124423042401042;-0.0004782187079569781;0.33791585127201557;-0.1458904109589041;-0.2187214611872146;-0.45775398071316437;-0.04395604395604395;0.09040859933717077;-0.0793650793650795;-0.06018518518518524;-0.053472222222222254;-0.07936507936507914;-0.06018518518518506;-0.053472222222222185;-0.07936507936507949;-0.060185185185185286;-0.05347222222222227;-0.0793650793650676;-0.060185185185180456;-0.053472222222219944;-0.07936507936508275;-0.060185185185186584;-0.053472222222222913;-0.07936507936508304;-0.06018518518518666;-0.053472222222222913;-0.07936507936507887;-0.06018518518518499;-0.05347222222222213;-0.0793650793650852;-0.060185185185187534;-0.05347222222222337;1.7233315508984337;1.161804055633799;1.0216869276559644;1.3109589041095893;1.8538812785388132;1.5757990867579912;2.071428571428571;0.8852258852258851;0.8144078144078143;1.6111111111111112;1.2530864197530864;1.1277777777777778;1.6111111111111116;1.2530864197530869;1.127777777777778;1.6111111111111116;1.2530864197530869;1.1277777777777782;1.6111111111111116;1.2530864197530867;1.127777777777778;1.6111111111111112;1.2530864197530869;1.127777777777778;1.6111111111111107;1.253086419753086;1.1277777777777775;1.6111111111111112;1.2530864197530867;1.127777777777778;1.611111111111111;1.2530864197530867;1.127777777777778;0.21797092264790877;-0.2222424847442273;3.1150988687678383;0.9871445733127869;3.1150988687678383;0.9871445733127869;2.0296724281808713;1.1849493707516128;6.222542033332312;5.782982142748243;12.23354203333231;11.793982142748238;20.80206830944783;20.36250841886376;2.968542033332312;2.5289821427482426;2.772542033332316;2.332982142748241;2.72254203333231;2.2829821427482426;1.8925420333323115;1.4529821427482406;11.48284203333231;11.043282142748243;3.324760174025222;45.357876084548195;22.67893804227409;33.43671098707667;45.35787608454818;5.039764009394243;22.67893804274028;2.947308172882904;0.32747868587587825;0.975531754358655;27.123286378306716;3.013698486478524;3.195032119213873;45.357876084548195;22.67893804227409;33.43671098707667;45.35787608454818;5.039764009394243;22.67893804274028;2.947308172882904;0.32747868587587825;0.975531754358655;27.123286378306716;3.013698486478524;3.195032119213873;45.357876084548195;22.67893804227409;33.43671098707667;45.35787608454818;5.039764009394243;22.67893804274028;2.947308172882904;0.32747868587587825;0.975531754358655;27.123286378306716;3.013698486478524;3.195032119213873;45.357876084548195;22.67893804227409;33.43671098707667;45.35787608454818;5.039764009394243;22.67893804274028;2.947308172882904;0.32747868587587825;0.975531754358655;27.123286378306716;3.013698486478524;3.195032119213873;45.357876084548195;22.67893804227409;33.43671098707667;45.35787608454818;5.039764009394243;22.67893804274028;2.947308172882904;0.32747868587587825;0.975531754358655;27.123286378306716;3.013698486478524;3.195032119213873;45.357876084548195;22.67893804227409;33.43671098707667;45.35787608454818;5.039764009394243;22.67893804274028;2.947308172882904;0.32747868587587825;0.975531754358655;27.123286378306716;3.013698486478524;3.195032119213873;45.357876084548195;22.67893804227409;33.43671098707667;45.35787608454818;5.039764009394243;22.67893804274028;2.947308172882904;0.32747868587587825;0.975531754358655;27.123286378306716;3.013698486478524;3.195032119213873;45.357876084548195;22.67893804227409;33.43671098707667;45.35787608454818;5.039764009394243;22.67893804274028;2.947308172882904;0.32747868587587825;0.975531754358655;27.123286378306716;3.013698486478524;3.195032119213873;57.058650025961626;28.0;8.0;28.0;28.0;0.13110132684696496;0.060682165231672955;4.0;3.0;2.0;0.0;0.4714045207910317;0.0;0.16666666666666666;0.0;0.4714045207910317;0.0;0.16666666666666666;0.0;1.2071067811865477;1.1380711874576983;0.922588984322123;1.2071067811865477;1.1380711874576983;0.922588984322123;7.276020881938894;4.218744015013407;3.151491193444101;2.359372007506703;1.1422285251880866;0.4023689270621825;0.11785113019775792;0.0;0.8084467646598772;0.5273430018766758;7.276020881938894;4.218744015013407;3.151491193444101;2.359372007506703;1.1422285251880866;0.4023689270621825;0.11785113019775792;0.0;0.8084467646598772;0.5273430018766758;12.33333333333333;10.678461410373828;14.418278037858745;27.87836853605244;26.254901960784316;26.599999999999998;16.985544910179645;33.15289645924176;0.425287356321839;0.3682228072542699;0.49718200130547396;0.9613230529673256;0.9053414469235971;0.9172413793103448;0.5857084451786084;1.1432033261807504;45.357876084548195;22.67893804227409;33.43671098707667;45.35787608454818;5.039764009394243;22.67893804274028;2.947308172882904;0.32747868587587825;0.975531754358655;27.123286378306716;3.013698486478524;3.195032119213873;4.0;3.0;2.0;0.0;9.24375;4.071111111111111;1.8518055555555553;0.0;2.3587962962962963;2.262777777777778;70.0;4.5;0.4444444444444444;0.2222222222222222;0.0;4.0;0.4444444444444444;4.0;0.4444444444444444;10.591625420773013;1.1768472689747793;4.218744015013406;0.4687493350014895;10.591625420773013;1.1768472689747793;4.218744015013406;0.4687493350014895;0.19546954735968924;0.021718838595521026;0.19546954735968924;0.021718838595521026;0.4241379310344827;0.7;0.4241379310344827;0.4241379310344827;0.7;-4.0;-0.4444444444444444;0.7142857142857143;0.00028571428571433355;8.0;0.8935711016541907;1.3685517054754786;2.5638663395075443;3.443513753449852;3.788341339656749;3.995237891380887;25.91356194797153;39.68799945878888;74.35212384571878;99.8618988500457;109.86189885004572;115.86189885004572;0.18393878085369605;0.28171203363045266;0.5277637648395569;0.7088363986815935;0.7798180650472607;0.8224070648666609;0.18587583320595183;0.28467873241398256;0.5333216251090068;0.716301128017398;0.7880302996299875;0.8310678025975412;3.9644098934733814;3.4894292896520933;2.2941146556200276;1.4144672416777198;1.069639655470823;0.8627431037466851;6.664965218283638;12.369957250781123;16.89655947727526;19.300899242942897;20.407313036046347;20.61586476018428;35.68332320783173;26.142133731356516;22.268742846039544;18.00040597233527;15.830541598849013;15.040392188527786;9.0;1.0;0.0;-2.7006147003950467;137.67000000000004;59.6587879430024;46.95741366754052;11.835812092322787;11.835812092322787;46.95741366754052;11.835812092322787;46.95741366754052;0.0;11.835812092322787;19.26246486877803;0.0;27.694948798762496;0.0;1.8518055555555553;4.071111111111111;9.24375;1.4867477590984401;16.484787196324763;1.8316430218138626;16.484787196324763;1.8316430218138626;9.0;9.0;6.0;3.0;1.0;0.0;0.0;0.0;0.0;45.0;2.1972245773362196;2.302585092994046;2.302585092994046;1.9459101490553132;1.3862943611198906;0.6931471805599453;0.0;0.0;0.0;0.0;3.828641396489095;28.365859999999998;20.06414;4.0;0.5;3.468700000000003;43.52700000000001;2.0;1.333333333333334;0.5;0.16000000000000003;0.05555555555555555;0.0;0.0;0.0;0.0;0.0;0.25;0.14814814814814822;0.05555555555555555;0.026666666666666672;0.018518518518518517;0.0;0.0;0.0;0.0;0.0;0.498888888888889;6.0;3.0;1.0;0.5;164.22032596245742;4.0;8.0;3.5553480614894135;4.2626798770413155;5.003946305945459;5.739792912179234;6.48768401848461;7.2305631534092925;7.979681302387741;8.724695046740491;9.473857817428666;75.45824849510622;2.833213344056216;3.970291913552122;5.313205979041787;6.739336627357174;8.20166019080868;36.05770805481598;128.15650064;4.419189677241379;98.0;9.0;34.0;35.0;4.972222222222222;2.361111111111111