boiling_point;SMILES;IUPAC_name;InChIKey;SpAbs_A;SpMax_A;SpDiam_A;SpAD_A;SpMAD_A;LogEE_A;VE1_A;VE2_A;VE3_A;VR1_A;VR2_A;VR3_A;nAtom;nHeavyAtom;nH;nC;ATS0dv;ATS1dv;ATS2dv;ATS3dv;ATS4dv;ATS5dv;ATS6dv;ATS7dv;ATS8dv;ATS0d;ATS1d;ATS2d;ATS3d;ATS4d;ATS5d;ATS6d;ATS7d;ATS8d;ATS0s;ATS1s;ATS2s;ATS3s;ATS4s;ATS5s;ATS6s;ATS7s;ATS8s;ATS0Z;ATS1Z;ATS2Z;ATS3Z;ATS4Z;ATS5Z;ATS6Z;ATS7Z;ATS8Z;ATS0m;ATS1m;ATS2m;ATS3m;ATS4m;ATS5m;ATS6m;ATS7m;ATS8m;ATS0v;ATS1v;ATS2v;ATS3v;ATS4v;ATS5v;ATS6v;ATS7v;ATS8v;ATS0se;ATS1se;ATS2se;ATS3se;ATS4se;ATS5se;ATS6se;ATS7se;ATS8se;ATS0pe;ATS1pe;ATS2pe;ATS3pe;ATS4pe;ATS5pe;ATS6pe;ATS7pe;ATS8pe;ATS0are;ATS1are;ATS2are;ATS3are;ATS4are;ATS5are;ATS6are;ATS7are;ATS8are;ATS0p;ATS1p;ATS2p;ATS3p;ATS4p;ATS5p;ATS6p;ATS7p;ATS8p;ATS0i;ATS1i;ATS2i;ATS3i;ATS4i;ATS5i;ATS6i;ATS7i;ATS8i;AATS0dv;AATS1dv;AATS2dv;AATS3dv;AATS0d;AATS1d;AATS2d;AATS3d;AATS0s;AATS1s;AATS2s;AATS3s;AATS0Z;AATS1Z;AATS2Z;AATS3Z;AATS0m;AATS1m;AATS2m;AATS3m;AATS0v;AATS1v;AATS2v;AATS3v;AATS0se;AATS1se;AATS2se;AATS3se;AATS0pe;AATS1pe;AATS2pe;AATS3pe;AATS0are;AATS1are;AATS2are;AATS3are;AATS0p;AATS1p;AATS2p;AATS3p;AATS0i;AATS1i;AATS2i;AATS3i;ATSC0c;ATSC1c;ATSC2c;ATSC3c;ATSC4c;ATSC5c;ATSC6c;ATSC7c;ATSC8c;ATSC0dv;ATSC1dv;ATSC2dv;ATSC3dv;ATSC4dv;ATSC5dv;ATSC6dv;ATSC7dv;ATSC8dv;ATSC0d;ATSC1d;ATSC2d;ATSC3d;ATSC4d;ATSC5d;ATSC6d;ATSC7d;ATSC8d;ATSC0s;ATSC1s;ATSC2s;ATSC3s;ATSC4s;ATSC5s;ATSC6s;ATSC7s;ATSC8s;ATSC0Z;ATSC1Z;ATSC2Z;ATSC3Z;ATSC4Z;ATSC5Z;ATSC6Z;ATSC7Z;ATSC8Z;ATSC0m;ATSC1m;ATSC2m;ATSC3m;ATSC4m;ATSC5m;ATSC6m;ATSC7m;ATSC8m;ATSC0v;ATSC1v;ATSC2v;ATSC3v;ATSC4v;ATSC5v;ATSC6v;ATSC7v;ATSC8v;ATSC0se;ATSC1se;ATSC2se;ATSC3se;ATSC4se;ATSC5se;ATSC6se;ATSC7se;ATSC8se;ATSC0pe;ATSC1pe;ATSC2pe;ATSC3pe;ATSC4pe;ATSC5pe;ATSC6pe;ATSC7pe;ATSC8pe;ATSC0are;ATSC1are;ATSC2are;ATSC3are;ATSC4are;ATSC5are;ATSC6are;ATSC7are;ATSC8are;ATSC0p;ATSC1p;ATSC2p;ATSC3p;ATSC4p;ATSC5p;ATSC6p;ATSC7p;ATSC8p;ATSC0i;ATSC1i;ATSC2i;ATSC3i;ATSC4i;ATSC5i;ATSC6i;ATSC7i;ATSC8i;AATSC0c;AATSC1c;AATSC2c;AATSC3c;AATSC0dv;AATSC1dv;AATSC2dv;AATSC3dv;AATSC0d;AATSC1d;AATSC2d;AATSC3d;AATSC0s;AATSC1s;AATSC2s;AATSC3s;AATSC0Z;AATSC1Z;AATSC2Z;AATSC3Z;AATSC0m;AATSC1m;AATSC2m;AATSC3m;AATSC0v;AATSC1v;AATSC2v;AATSC3v;AATSC0se;AATSC1se;AATSC2se;AATSC3se;AATSC0pe;AATSC1pe;AATSC2pe;AATSC3pe;AATSC0are;AATSC1are;AATSC2are;AATSC3are;AATSC0p;AATSC1p;AATSC2p;AATSC3p;AATSC0i;AATSC1i;AATSC2i;AATSC3i;MATS1c;MATS2c;MATS3c;MATS1dv;MATS2dv;MATS3dv;MATS1s;MATS2s;MATS3s;MATS1Z;MATS2Z;MATS3Z;MATS1m;MATS2m;MATS3m;MATS1v;MATS2v;MATS3v;MATS1se;MATS2se;MATS3se;MATS1pe;MATS2pe;MATS3pe;MATS1are;MATS2are;MATS3are;MATS1p;MATS2p;MATS3p;MATS1i;MATS2i;MATS3i;GATS1c;GATS2c;GATS3c;GATS1dv;GATS2dv;GATS3dv;GATS1s;GATS2s;GATS3s;GATS1Z;GATS2Z;GATS3Z;GATS1m;GATS2m;GATS3m;GATS1v;GATS2v;GATS3v;GATS1se;GATS2se;GATS3se;GATS1pe;GATS2pe;GATS3pe;GATS1are;GATS2are;GATS3are;GATS1p;GATS2p;GATS3p;GATS1i;GATS2i;GATS3i;BCUTc-1h;BCUTc-1l;BCUTdv-1h;BCUTdv-1l;BCUTd-1h;BCUTd-1l;BCUTs-1h;BCUTs-1l;BCUTZ-1h;BCUTZ-1l;BCUTm-1h;BCUTm-1l;BCUTv-1h;BCUTv-1l;BCUTse-1h;BCUTse-1l;BCUTpe-1h;BCUTpe-1l;BCUTare-1h;BCUTare-1l;BCUTp-1h;BCUTp-1l;BCUTi-1h;BCUTi-1l;BalabanJ;SpAbs_DzZ;SpMax_DzZ;SpDiam_DzZ;SpAD_DzZ;SpMAD_DzZ;LogEE_DzZ;VE1_DzZ;VE2_DzZ;VE3_DzZ;VR1_DzZ;VR2_DzZ;VR3_DzZ;SpAbs_Dzm;SpMax_Dzm;SpDiam_Dzm;SpAD_Dzm;SpMAD_Dzm;LogEE_Dzm;VE1_Dzm;VE2_Dzm;VE3_Dzm;VR1_Dzm;VR2_Dzm;VR3_Dzm;SpAbs_Dzv;SpMax_Dzv;SpDiam_Dzv;SpAD_Dzv;SpMAD_Dzv;LogEE_Dzv;VE1_Dzv;VE2_Dzv;VE3_Dzv;VR1_Dzv;VR2_Dzv;VR3_Dzv;SpAbs_Dzse;SpMax_Dzse;SpDiam_Dzse;SpAD_Dzse;SpMAD_Dzse;LogEE_Dzse;VE1_Dzse;VE2_Dzse;VE3_Dzse;VR1_Dzse;VR2_Dzse;VR3_Dzse;SpAbs_Dzpe;SpMax_Dzpe;SpDiam_Dzpe;SpAD_Dzpe;SpMAD_Dzpe;LogEE_Dzpe;VE1_Dzpe;VE2_Dzpe;VE3_Dzpe;VR1_Dzpe;VR2_Dzpe;VR3_Dzpe;SpAbs_Dzare;SpMax_Dzare;SpDiam_Dzare;SpAD_Dzare;SpMAD_Dzare;LogEE_Dzare;VE1_Dzare;VE2_Dzare;VE3_Dzare;VR1_Dzare;VR2_Dzare;VR3_Dzare;SpAbs_Dzp;SpMax_Dzp;SpDiam_Dzp;SpAD_Dzp;SpMAD_Dzp;LogEE_Dzp;VE1_Dzp;VE2_Dzp;VE3_Dzp;VR1_Dzp;VR2_Dzp;VR3_Dzp;SpAbs_Dzi;SpMax_Dzi;SpDiam_Dzi;SpAD_Dzi;SpMAD_Dzi;LogEE_Dzi;VE1_Dzi;VE2_Dzi;VE3_Dzi;VR1_Dzi;VR2_Dzi;VR3_Dzi;BertzCT;nBonds;nBondsO;nBondsS;nBondsKS;RNCG;RPCG;C1SP3;C2SP3;C3SP3;C4SP3;Xc-3d;Xc-4d;Xc-5d;Xc-6d;Xc-3dv;Xc-4dv;Xc-5dv;Xc-6dv;Xpc-4d;Xpc-5d;Xpc-6d;Xpc-4dv;Xpc-5dv;Xpc-6dv;Xp-0d;Xp-1d;Xp-2d;Xp-3d;Xp-4d;Xp-5d;Xp-6d;Xp-7d;AXp-0d;AXp-1d;Xp-0dv;Xp-1dv;Xp-2dv;Xp-3dv;Xp-4dv;Xp-5dv;Xp-6dv;Xp-7dv;AXp-0dv;AXp-1dv;SZ;Sm;Sv;Sse;Spe;Sare;Sp;Si;MZ;Mm;Mv;Mse;Mpe;Mare;Mp;Mi;SpAbs_D;SpMax_D;SpDiam_D;SpAD_D;SpMAD_D;LogEE_D;VE1_D;VE2_D;VE3_D;VR1_D;VR2_D;VR3_D;NsCH3;NssCH2;NsssCH;NssssC;SsCH3;SssCH2;SsssCH;SssssC;MAXsCH3;MINsCH3;ECIndex;ETA_alpha;ETA_shape_p;ETA_shape_y;ETA_shape_x;ETA_beta;AETA_beta;ETA_beta_s;AETA_beta_s;ETA_eta;AETA_eta;ETA_eta_L;AETA_eta_L;ETA_eta_R;AETA_eta_R;ETA_eta_RL;AETA_eta_RL;ETA_eta_B;AETA_eta_B;ETA_eta_BR;AETA_eta_BR;ETA_epsilon_1;ETA_epsilon_2;ETA_epsilon_3;ETA_epsilon_4;ETA_epsilon_5;ETA_dBeta;AETA_dBeta;ETA_psi_1;ETA_dPsi_B;fragCpx;IC0;IC1;IC2;IC3;IC4;IC5;TIC0;TIC1;TIC2;TIC3;TIC4;TIC5;SIC0;SIC1;SIC2;SIC3;SIC4;SIC5;BIC0;BIC1;BIC2;BIC3;BIC4;BIC5;CIC0;CIC1;CIC2;CIC3;CIC4;CIC5;MIC0;MIC1;MIC2;MIC3;MIC4;MIC5;ZMIC0;ZMIC1;ZMIC2;ZMIC3;ZMIC4;ZMIC5;Kier1;Lipinski;GhoseFilter;FilterItLogS;VMcGowan;LabuteASA;PEOE_VSA6;PEOE_VSA7;SMR_VSA4;SMR_VSA5;SlogP_VSA4;SlogP_VSA5;EState_VSA3;EState_VSA4;EState_VSA5;EState_VSA7;EState_VSA8;VSA_EState4;VSA_EState5;VSA_EState7;VSA_EState8;MDEC-11;MID;AMID;MID_C;AMID_C;MPC2;MPC3;MPC4;MPC5;MPC6;MPC7;MPC8;MPC9;MPC10;TMPC10;piPC1;piPC2;piPC3;piPC4;piPC5;piPC6;piPC7;piPC8;piPC9;piPC10;TpiPC10;apol;bpol;nRot;RotRatio;SLogP;SMR;GGI1;GGI2;GGI3;GGI4;GGI5;GGI6;GGI7;GGI8;GGI9;GGI10;JGI1;JGI2;JGI3;JGI4;JGI5;JGI6;JGI7;JGI8;JGI9;JGI10;JGT10;Diameter;Radius;TopoShapeIndex;PetitjeanIndex;Vabc;VAdjMat;MWC01;MWC02;MWC03;MWC04;MWC05;MWC06;MWC07;MWC08;MWC09;MWC10;TMWC10;SRW02;SRW04;SRW06;SRW08;SRW10;TSRW10;MW;AMW;WPath;WPol;Zagreb1;Zagreb2;mZagreb1;mZagreb2
160.8;CCC(C)CCC(C)CC;3,6-dimethyloctane;JEEQUUSFXYRPRK-UHFFFAOYSA-N;11.831349526796384;2.0614988506846426;4.122997701369286;11.831349526796384;1.1831349526796384;3.1240596999095587;2.9437619772029593;0.29437619772029594;1.079688347463217;29.82996418707902;2.982996418707902;3.3955133979586893;32.0;10.0;22.0;10.0;38.0;38.0;34.0;27.0;22.0;15.0;6.0;1.0;0.0;60.0;72.0;126.0;141.0;130.0;118.0;78.0;60.0;36.0;50.55555555555556;60.25;93.5;122.6111111111111;130.0;105.91666666666666;83.0;76.0;42.0;382.0;456.0;580.0;606.0;510.0;411.0;334.0;199.0;66.0;1464.9946180000002;1564.7330249999998;1870.5392259999996;1837.3567049999997;1416.7571099999996;1207.9741019999997;938.4083559999999;442.1180409999999;103.12444799999997;4919.011394973762;6335.857675895377;8633.553884985813;9563.102336233658;8665.556564156832;6880.051169365868;5590.5352428523065;3911.3185392595774;1620.9320311510196;223.21136800000002;224.452548;424.90007199999997;568.359108;626.359128;558.707928;377.261968;372.400804;244.25971199999998;171.505;181.9425;333.20500000000004;439.3425;477.915;420.49499999999995;289.57000000000005;279.96250000000003;178.86;168.98000000000002;177.25;326.94000000000005;432.45000000000005;471.78000000000003;416.34000000000003;285.48;277.29;178.20000000000005;37.670483906678;49.59807482;72.863313017584;85.20734816547001;82.17600302365801;66.13372158729901;52.116324586678004;41.069874870319;20.019653005469998;5336.131905433478;4509.8452544938;9432.792615526585;13119.82576947927;14958.45452550026;13866.5075348863;8862.797104854677;9227.93761852552;6466.26484700487;1.1875;1.2258064516129032;0.5666666666666667;0.3333333333333333;1.875;2.3225806451612905;2.1;1.7407407407407407;1.5798611111111112;1.9435483870967742;1.5583333333333333;1.5137174211248283;11.9375;14.709677419354838;9.666666666666666;7.481481481481482;45.781081812500005;50.475258870967735;31.17565376666666;22.683416111111107;153.71910609293008;204.3825056740444;143.89256474976355;118.0629918053538;6.975355250000001;7.240404774193548;7.081667866666666;7.016779111111111;5.35953125;5.8691129032258065;5.553416666666667;5.423981481481481;5.280625000000001;5.717741935483871;5.449000000000001;5.3388888888888895;1.1772026220836875;1.5999378974193548;1.2143885502930667;1.051942569944074;166.7541220447962;145.47887917721934;157.21321025877643;161.97315764789224;0.04508940357693786;-0.00720897599111192;-0.007514209129199418;-0.007685410006161687;-0.014347900988602997;0.018645597474279886;-0.00871791278345816;-0.00853098144440233;0.008035321112791646;27.875;7.30859375;-11.140625;-11.49609375;-0.1484375;0.12890625;-10.6640625;1.2109375;8.015625;10.0;2.9375;-5.25;-2.4375;0.625;-2.9375;-2.625;1.875;2.25;3.8333333333333344;-1.6267361111111103;-0.14583333333333284;0.41840277777777823;-2.010416666666667;1.8489583333333324;-0.0729166666666663;-1.03125;0.3124999999999993;171.875;-11.81640625;-25.390625;-45.99609375;-52.1484375;66.50390625;-49.4140625;-30.6640625;41.015625;832.3288118749999;-57.2226058164061;-122.95766539062487;-222.74253999609363;-252.53612814843746;322.05450050390607;-239.29453341406239;-148.49502666406255;198.62392101562486;1547.7509673946556;-106.40787900838228;-228.64502927421026;-414.19926456981966;-469.60171397087856;598.8740959066819;-444.9784031259635;-276.13284304654667;369.3496626737244;0.1630474999999998;-0.011209515625000695;-0.02408656250000054;-0.043633734375000274;-0.04947009374999986;0.06308826562500043;-0.04687615625000002;-0.029089156249999637;0.03890906250000052;0.8421874999999983;-0.057900390625000686;-0.12441406250000041;-0.22538085937499994;-0.2555273437499994;0.3258691406249999;-0.2421289062499996;-0.15025390624999932;0.20097656250000023;0.6187499999999992;-0.04253906250000031;-0.09140625000000017;-0.16558593749999995;-0.18773437499999973;0.23941406249999997;-0.17789062499999983;-0.11039062499999971;0.1476562500000001;6.919166958336874;-0.4756927283856631;-1.022149664299768;-1.8516634303276533;-2.0993381566772102;2.6772458514928497;-1.9892605005218518;-1.2344422868851;1.651164842330393;37.58502473308684;-2.5839704503997747;-5.552333199206053;-10.058265141638604;-11.403638186061567;14.542841956381931;-10.805694610762473;-6.705510094425693;8.969153629486673;0.001409043861779308;-0.00023254761261651356;-0.0001252368188199903;-9.488160501434181e-05;0.87109375;0.2357610887096774;-0.18567708333333333;-0.14192708333333334;0.3125;0.09475806451612903;-0.0875;-0.03009259259259259;0.1197916666666667;-0.05247535842293904;-0.0024305555555555474;0.00516546639231825;5.37109375;-0.3811743951612903;-0.4231770833333333;-0.5678530092592593;26.010275371093748;-1.8458905102066485;-2.049294423177081;-2.749907901186341;48.36721773108299;-3.432512226076848;-3.8107504879035043;-5.1135711675286375;0.005095234374999993;-0.0003615972782258289;-0.00040144270833334235;-0.0005386880787037071;0.026318359374999947;-0.0018677545362903447;-0.00207356770833334;-0.0027824797453703696;0.019335937499999976;-0.001372227822580655;-0.0015234375000000029;-0.002044270833333333;0.2162239674480273;-0.015344926722118166;-0.017035827738329467;-0.022860042349724115;1.1745320229089637;-0.08335388549676692;-0.09253888665343422;-0.12417611285973584;-0.1650392999994037;-0.0888807099743823;-0.0673375808858977;0.27064950094025747;-0.21315396113602392;-0.16292974588938716;-0.438055165965404;-0.020289855072463694;0.043120415101091464;-0.07096774193548387;-0.07878787878787878;-0.10572390572390573;-0.07096774193548369;-0.07878787878787871;-0.10572390572390566;-0.07096774193548368;-0.07878787878787871;-0.10572390572390569;-0.07096774193548837;-0.07878787878788066;-0.10572390572390654;-0.07096774193548486;-0.0787878787878792;-0.1057239057239059;-0.07096774193548447;-0.07878787878787903;-0.10572390572390583;-0.07096774193548433;-0.07878787878787899;-0.1057239057239058;-0.07096774193548536;-0.07878787878787939;-0.10572390572390597;1.6945528873382942;1.1836764106744324;1.1110014239254737;1.3632286995515697;1.8720478325859493;1.318053479488457;2.050724637681159;0.876086956521739;0.879137591697978;1.6;1.2775757575757576;1.169023569023569;1.6000000000000003;1.277575757575758;1.1690235690235693;1.6000000000000005;1.2775757575757578;1.169023569023569;1.6;1.2775757575757576;1.169023569023569;1.6000000000000003;1.2775757575757576;1.169023569023569;1.6000000000000003;1.2775757575757576;1.169023569023569;1.6;1.2775757575757578;1.1690235690235695;1.5999999999999999;1.2775757575757574;1.169023569023569;0.21413687182584765;-0.2144023141264707;3.028175362207423;0.9871432665135633;3.028175362207423;0.9871432665135633;2.0296651267309374;1.2237111346337064;6.217455843661356;5.789478735044206;12.228455843661383;11.800478735044212;20.796982119776857;20.3690050111597;2.963455843661357;2.5354787350442045;2.767455843661356;2.3394787350442057;2.7174558436613565;2.2894787350442085;1.8874558436613569;1.4594787350442024;11.477755843661368;11.04977873504422;3.1681741287467013;58.46211178521661;29.231055892608296;44.8898461984498;58.46211178521659;5.846211178521659;29.23105589260903;3.11240998284832;0.311240998284832;1.1353973401993702;31.457893882092907;3.1457893882092907;3.4486499494925535;58.46211178521661;29.231055892608296;44.8898461984498;58.46211178521659;5.846211178521659;29.23105589260903;3.11240998284832;0.311240998284832;1.1353973401993702;31.457893882092907;3.1457893882092907;3.4486499494925535;58.46211178521661;29.231055892608296;44.8898461984498;58.46211178521659;5.846211178521659;29.23105589260903;3.11240998284832;0.311240998284832;1.1353973401993702;31.457893882092907;3.1457893882092907;3.4486499494925535;58.46211178521661;29.231055892608296;44.8898461984498;58.46211178521659;5.846211178521659;29.23105589260903;3.11240998284832;0.311240998284832;1.1353973401993702;31.457893882092907;3.1457893882092907;3.4486499494925535;58.46211178521661;29.231055892608296;44.8898461984498;58.46211178521659;5.846211178521659;29.23105589260903;3.11240998284832;0.311240998284832;1.1353973401993702;31.457893882092907;3.1457893882092907;3.4486499494925535;58.46211178521661;29.231055892608296;44.8898461984498;58.46211178521659;5.846211178521659;29.23105589260903;3.11240998284832;0.311240998284832;1.1353973401993702;31.457893882092907;3.1457893882092907;3.4486499494925535;58.46211178521661;29.231055892608296;44.8898461984498;58.46211178521659;5.846211178521659;29.23105589260903;3.11240998284832;0.311240998284832;1.1353973401993702;31.457893882092907;3.1457893882092907;3.4486499494925535;58.46211178521661;29.231055892608296;44.8898461984498;58.46211178521659;5.846211178521659;29.23105589260903;3.11240998284832;0.311240998284832;1.1353973401993702;31.457893882092907;3.1457893882092907;3.4486499494925535;56.43856189774725;31.0;9.0;31.0;31.0;0.11789039530752611;0.05425815338087813;4.0;4.0;2.0;0.0;0.5773502691896257;0.0;0.0;0.0;0.5773502691896257;0.0;0.0;0.0;0.9855985596534887;0.6439505508593788;0.6380711874576984;0.9855985596534887;0.6439505508593788;0.6380711874576984;7.983127663125442;4.701907262607799;3.6041902811624302;2.5461120764375074;0.9772838841927121;0.7214045207910317;0.4023689270621825;0.08333333333333333;0.7983127663125442;0.5224341402897554;7.983127663125442;4.701907262607799;3.6041902811624302;2.5461120764375074;0.9772838841927121;0.7214045207910317;0.4023689270621825;0.08333333333333333;0.7983127663125442;0.5224341402897554;13.666666666666668;11.846307551411208;15.96010584164462;30.766205389657685;28.98039215686275;29.360000000000003;18.784099401197608;36.568186105165935;0.42708333333333337;0.37019711098160024;0.49875330755139435;0.9614439184268027;0.9056372549019609;0.9175000000000001;0.5870031062874252;1.1427558157864355;58.46211178521661;29.231055892608296;44.8898461984498;58.46211178521659;5.846211178521659;29.23105589260903;3.11240998284832;0.311240998284832;1.1353973401993702;31.457893882092907;3.1457893882092907;3.4486499494925535;4.0;4.0;2.0;0.0;9.257260015117158;5.531628873771731;1.8777777777777773;0.0;2.3495833333333334;2.2790466742252455;96.0;5.0;0.4;0.2;0.0;4.5;0.45;4.5;0.45;12.027667764484036;1.2027667764484036;4.701907262607799;0.4701907262607799;12.027667764484036;1.2027667764484036;4.701907262607799;0.4701907262607799;0.21230629976529602;0.0212306299765296;0.21230629976529602;0.0212306299765296;0.425;0.7;0.425;0.425;0.7;-4.5;-0.45;0.7142857142857143;0.00028571428571433355;9.0;0.8960382325345574;1.3716407621868583;2.5306390622295662;3.1556390622295662;3.1556390622295662;3.1556390622295662;28.673223441105836;43.892504389979464;80.98044999134612;100.98044999134612;100.98044999134612;100.98044999134612;0.17920764650691148;0.27432815243737163;0.5061278124459132;0.6311278124459132;0.6311278124459132;0.6311278124459132;0.1808644987797396;0.2768644349661926;0.5108071831800197;0.6369628622938321;0.6369628622938321;0.6369628622938321;4.103961767465442;3.6283592378131417;2.4693609377704338;1.8443609377704338;1.8443609377704338;1.8443609377704338;6.673151904630568;12.385613888284354;16.304634174727404;16.9346341747274;16.9346341747274;16.9346341747274;39.639944988972836;29.17609676811088;25.8676687467548;23.9338343733774;23.9338343733774;23.9338343733774;10.0;1.0;0.0;-3.119502638111995;151.76000000000002;66.02373005739902;53.378235290466534;11.835812092322787;11.835812092322787;53.378235290466534;11.835812092322787;53.378235290466534;0.0;11.835812092322787;25.683286491704038;0.0;27.694948798762496;0.0;1.8777777777777773;5.531628873771731;9.257260015117158;1.265850472235325;18.483930584527958;1.8483930584527957;18.483930584527958;1.8483930584527957;10.0;9.0;6.0;6.0;4.0;1.0;0.0;0.0;0.0;55.0;2.302585092994046;2.3978952727983707;2.302585092994046;1.9459101490553132;1.9459101490553132;1.6094379124341003;0.6931471805599453;0.0;0.0;0.0;4.02535169073515;31.369446;22.070553999999998;5.0;0.5555555555555556;3.858800000000003;48.14400000000003;2.5;1.1111111111111116;0.25;0.32000000000000006;0.16666666666666666;0.04081632653061225;0.0;0.0;0.0;0.0;0.2777777777777778;0.11111111111111116;0.027777777777777776;0.053333333333333344;0.027777777777777776;0.010204081632653062;0.0;0.0;0.0;0.0;0.5079818594104308;7.0;4.0;0.75;0.42857142857142855;181.5163111863147;4.169925001442312;9.0;3.6635616461296463;4.343805421853684;5.0689042022202315;5.777652323222656;6.505784060128229;7.221835825288449;7.949797216161852;8.668539943910762;9.395574350217172;77.59545498913269;2.9444389791664403;4.07753744390572;5.37989735354046;6.736966958001855;8.119398589612294;37.25823932422677;142.172150704;4.4428797095;141.0;9.0;38.0;38.0;5.222222222222222;2.5833333333333335