boiling_point;SMILES;IUPAC_name;InChIKey;SpAbs_A;SpMax_A;SpDiam_A;SpAD_A;SpMAD_A;LogEE_A;VE1_A;VE2_A;VE3_A;VR1_A;VR2_A;VR3_A;nAtom;nHeavyAtom;nH;nC;ATS0dv;ATS1dv;ATS2dv;ATS3dv;ATS4dv;ATS5dv;ATS6dv;ATS7dv;ATS8dv;ATS0d;ATS1d;ATS2d;ATS3d;ATS4d;ATS5d;ATS6d;ATS7d;ATS8d;ATS0s;ATS1s;ATS2s;ATS3s;ATS4s;ATS5s;ATS6s;ATS7s;ATS8s;ATS0Z;ATS1Z;ATS2Z;ATS3Z;ATS4Z;ATS5Z;ATS6Z;ATS7Z;ATS8Z;ATS0m;ATS1m;ATS2m;ATS3m;ATS4m;ATS5m;ATS6m;ATS7m;ATS8m;ATS0v;ATS1v;ATS2v;ATS3v;ATS4v;ATS5v;ATS6v;ATS7v;ATS8v;ATS0se;ATS1se;ATS2se;ATS3se;ATS4se;ATS5se;ATS6se;ATS7se;ATS8se;ATS0pe;ATS1pe;ATS2pe;ATS3pe;ATS4pe;ATS5pe;ATS6pe;ATS7pe;ATS8pe;ATS0are;ATS1are;ATS2are;ATS3are;ATS4are;ATS5are;ATS6are;ATS7are;ATS8are;ATS0p;ATS1p;ATS2p;ATS3p;ATS4p;ATS5p;ATS6p;ATS7p;ATS8p;ATS0i;ATS1i;ATS2i;ATS3i;ATS4i;ATS5i;ATS6i;ATS7i;ATS8i;AATS0dv;AATS1dv;AATS2dv;AATS3dv;AATS0d;AATS1d;AATS2d;AATS3d;AATS0s;AATS1s;AATS2s;AATS3s;AATS0Z;AATS1Z;AATS2Z;AATS3Z;AATS0m;AATS1m;AATS2m;AATS3m;AATS0v;AATS1v;AATS2v;AATS3v;AATS0se;AATS1se;AATS2se;AATS3se;AATS0pe;AATS1pe;AATS2pe;AATS3pe;AATS0are;AATS1are;AATS2are;AATS3are;AATS0p;AATS1p;AATS2p;AATS3p;AATS0i;AATS1i;AATS2i;AATS3i;ATSC0c;ATSC1c;ATSC2c;ATSC3c;ATSC4c;ATSC5c;ATSC6c;ATSC7c;ATSC8c;ATSC0dv;ATSC1dv;ATSC2dv;ATSC3dv;ATSC4dv;ATSC5dv;ATSC6dv;ATSC7dv;ATSC8dv;ATSC0d;ATSC1d;ATSC2d;ATSC3d;ATSC4d;ATSC5d;ATSC6d;ATSC7d;ATSC8d;ATSC0s;ATSC1s;ATSC2s;ATSC3s;ATSC4s;ATSC5s;ATSC6s;ATSC7s;ATSC8s;ATSC0Z;ATSC1Z;ATSC2Z;ATSC3Z;ATSC4Z;ATSC5Z;ATSC6Z;ATSC7Z;ATSC8Z;ATSC0m;ATSC1m;ATSC2m;ATSC3m;ATSC4m;ATSC5m;ATSC6m;ATSC7m;ATSC8m;ATSC0v;ATSC1v;ATSC2v;ATSC3v;ATSC4v;ATSC5v;ATSC6v;ATSC7v;ATSC8v;ATSC0se;ATSC1se;ATSC2se;ATSC3se;ATSC4se;ATSC5se;ATSC6se;ATSC7se;ATSC8se;ATSC0pe;ATSC1pe;ATSC2pe;ATSC3pe;ATSC4pe;ATSC5pe;ATSC6pe;ATSC7pe;ATSC8pe;ATSC0are;ATSC1are;ATSC2are;ATSC3are;ATSC4are;ATSC5are;ATSC6are;ATSC7are;ATSC8are;ATSC0p;ATSC1p;ATSC2p;ATSC3p;ATSC4p;ATSC5p;ATSC6p;ATSC7p;ATSC8p;ATSC0i;ATSC1i;ATSC2i;ATSC3i;ATSC4i;ATSC5i;ATSC6i;ATSC7i;ATSC8i;AATSC0c;AATSC1c;AATSC2c;AATSC3c;AATSC0dv;AATSC1dv;AATSC2dv;AATSC3dv;AATSC0d;AATSC1d;AATSC2d;AATSC3d;AATSC0s;AATSC1s;AATSC2s;AATSC3s;AATSC0Z;AATSC1Z;AATSC2Z;AATSC3Z;AATSC0m;AATSC1m;AATSC2m;AATSC3m;AATSC0v;AATSC1v;AATSC2v;AATSC3v;AATSC0se;AATSC1se;AATSC2se;AATSC3se;AATSC0pe;AATSC1pe;AATSC2pe;AATSC3pe;AATSC0are;AATSC1are;AATSC2are;AATSC3are;AATSC0p;AATSC1p;AATSC2p;AATSC3p;AATSC0i;AATSC1i;AATSC2i;AATSC3i;MATS1c;MATS2c;MATS3c;MATS1dv;MATS2dv;MATS3dv;MATS1s;MATS2s;MATS3s;MATS1Z;MATS2Z;MATS3Z;MATS1m;MATS2m;MATS3m;MATS1v;MATS2v;MATS3v;MATS1se;MATS2se;MATS3se;MATS1pe;MATS2pe;MATS3pe;MATS1are;MATS2are;MATS3are;MATS1p;MATS2p;MATS3p;MATS1i;MATS2i;MATS3i;GATS1c;GATS2c;GATS3c;GATS1dv;GATS2dv;GATS3dv;GATS1s;GATS2s;GATS3s;GATS1Z;GATS2Z;GATS3Z;GATS1m;GATS2m;GATS3m;GATS1v;GATS2v;GATS3v;GATS1se;GATS2se;GATS3se;GATS1pe;GATS2pe;GATS3pe;GATS1are;GATS2are;GATS3are;GATS1p;GATS2p;GATS3p;GATS1i;GATS2i;GATS3i;BCUTc-1h;BCUTc-1l;BCUTdv-1h;BCUTdv-1l;BCUTd-1h;BCUTd-1l;BCUTs-1h;BCUTs-1l;BCUTZ-1h;BCUTZ-1l;BCUTm-1h;BCUTm-1l;BCUTv-1h;BCUTv-1l;BCUTse-1h;BCUTse-1l;BCUTpe-1h;BCUTpe-1l;BCUTare-1h;BCUTare-1l;BCUTp-1h;BCUTp-1l;BCUTi-1h;BCUTi-1l;BalabanJ;SpAbs_DzZ;SpMax_DzZ;SpDiam_DzZ;SpAD_DzZ;SpMAD_DzZ;LogEE_DzZ;VE1_DzZ;VE2_DzZ;VE3_DzZ;VR1_DzZ;VR2_DzZ;VR3_DzZ;SpAbs_Dzm;SpMax_Dzm;SpDiam_Dzm;SpAD_Dzm;SpMAD_Dzm;LogEE_Dzm;VE1_Dzm;VE2_Dzm;VE3_Dzm;VR1_Dzm;VR2_Dzm;VR3_Dzm;SpAbs_Dzv;SpMax_Dzv;SpDiam_Dzv;SpAD_Dzv;SpMAD_Dzv;LogEE_Dzv;VE1_Dzv;VE2_Dzv;VE3_Dzv;VR1_Dzv;VR2_Dzv;VR3_Dzv;SpAbs_Dzse;SpMax_Dzse;SpDiam_Dzse;SpAD_Dzse;SpMAD_Dzse;LogEE_Dzse;VE1_Dzse;VE2_Dzse;VE3_Dzse;VR1_Dzse;VR2_Dzse;VR3_Dzse;SpAbs_Dzpe;SpMax_Dzpe;SpDiam_Dzpe;SpAD_Dzpe;SpMAD_Dzpe;LogEE_Dzpe;VE1_Dzpe;VE2_Dzpe;VE3_Dzpe;VR1_Dzpe;VR2_Dzpe;VR3_Dzpe;SpAbs_Dzare;SpMax_Dzare;SpDiam_Dzare;SpAD_Dzare;SpMAD_Dzare;LogEE_Dzare;VE1_Dzare;VE2_Dzare;VE3_Dzare;VR1_Dzare;VR2_Dzare;VR3_Dzare;SpAbs_Dzp;SpMax_Dzp;SpDiam_Dzp;SpAD_Dzp;SpMAD_Dzp;LogEE_Dzp;VE1_Dzp;VE2_Dzp;VE3_Dzp;VR1_Dzp;VR2_Dzp;VR3_Dzp;SpAbs_Dzi;SpMax_Dzi;SpDiam_Dzi;SpAD_Dzi;SpMAD_Dzi;LogEE_Dzi;VE1_Dzi;VE2_Dzi;VE3_Dzi;VR1_Dzi;VR2_Dzi;VR3_Dzi;BertzCT;nBonds;nBondsO;nBondsS;nBondsKS;RNCG;RPCG;C1SP3;C2SP3;C3SP3;C4SP3;Xc-3d;Xc-4d;Xc-5d;Xc-6d;Xc-3dv;Xc-4dv;Xc-5dv;Xc-6dv;Xpc-4d;Xpc-5d;Xpc-6d;Xpc-4dv;Xpc-5dv;Xpc-6dv;Xp-0d;Xp-1d;Xp-2d;Xp-3d;Xp-4d;Xp-5d;Xp-6d;Xp-7d;AXp-0d;AXp-1d;Xp-0dv;Xp-1dv;Xp-2dv;Xp-3dv;Xp-4dv;Xp-5dv;Xp-6dv;Xp-7dv;AXp-0dv;AXp-1dv;SZ;Sm;Sv;Sse;Spe;Sare;Sp;Si;MZ;Mm;Mv;Mse;Mpe;Mare;Mp;Mi;SpAbs_D;SpMax_D;SpDiam_D;SpAD_D;SpMAD_D;LogEE_D;VE1_D;VE2_D;VE3_D;VR1_D;VR2_D;VR3_D;NsCH3;NssCH2;NsssCH;NssssC;SsCH3;SssCH2;SsssCH;SssssC;MAXsCH3;MINsCH3;ECIndex;ETA_alpha;ETA_shape_p;ETA_shape_y;ETA_shape_x;ETA_beta;AETA_beta;ETA_beta_s;AETA_beta_s;ETA_eta;AETA_eta;ETA_eta_L;AETA_eta_L;ETA_eta_R;AETA_eta_R;ETA_eta_RL;AETA_eta_RL;ETA_eta_B;AETA_eta_B;ETA_eta_BR;AETA_eta_BR;ETA_epsilon_1;ETA_epsilon_2;ETA_epsilon_3;ETA_epsilon_4;ETA_epsilon_5;ETA_dBeta;AETA_dBeta;ETA_psi_1;ETA_dPsi_B;fragCpx;IC0;IC1;IC2;IC3;IC4;IC5;TIC0;TIC1;TIC2;TIC3;TIC4;TIC5;SIC0;SIC1;SIC2;SIC3;SIC4;SIC5;BIC0;BIC1;BIC2;BIC3;BIC4;BIC5;CIC0;CIC1;CIC2;CIC3;CIC4;CIC5;MIC0;MIC1;MIC2;MIC3;MIC4;MIC5;ZMIC0;ZMIC1;ZMIC2;ZMIC3;ZMIC4;ZMIC5;Kier1;Lipinski;GhoseFilter;FilterItLogS;VMcGowan;LabuteASA;PEOE_VSA6;PEOE_VSA7;SMR_VSA4;SMR_VSA5;SlogP_VSA4;SlogP_VSA5;EState_VSA3;EState_VSA4;EState_VSA5;EState_VSA7;EState_VSA8;VSA_EState4;VSA_EState5;VSA_EState7;VSA_EState8;MDEC-11;MID;AMID;MID_C;AMID_C;MPC2;MPC3;MPC4;MPC5;MPC6;MPC7;MPC8;MPC9;MPC10;TMPC10;piPC1;piPC2;piPC3;piPC4;piPC5;piPC6;piPC7;piPC8;piPC9;piPC10;TpiPC10;apol;bpol;nRot;RotRatio;SLogP;SMR;GGI1;GGI2;GGI3;GGI4;GGI5;GGI6;GGI7;GGI8;GGI9;GGI10;JGI1;JGI2;JGI3;JGI4;JGI5;JGI6;JGI7;JGI8;JGI9;JGI10;JGT10;Diameter;Radius;TopoShapeIndex;PetitjeanIndex;Vabc;VAdjMat;MWC01;MWC02;MWC03;MWC04;MWC05;MWC06;MWC07;MWC08;MWC09;MWC10;TMWC10;SRW02;SRW04;SRW06;SRW08;SRW10;TSRW10;MW;AMW;WPath;WPol;Zagreb1;Zagreb2;mZagreb1;mZagreb2
89.8;CCC(C)C(C)C;2,3-dimethylpentane;WGECXQBGLLYSFP-UHFFFAOYSA-N;7.662987915037876;2.052880840033715;4.105761680067431;7.662987915037876;1.094712559291125;2.7663170126493575;2.4598318098164325;0.35140454425949036;0.5434180336748844;15.711648794723303;2.244521256389043;2.3977274547455556;23.0;7.0;16.0;7.0;26.0;26.0;21.0;10.0;2.0;0.0;0.0;0.0;0.0;42.0;48.0;86.0;90.0;75.0;54.0;18.0;0.0;0.0;37.80555555555556;44.44444444444444;66.0;87.33333333333331;96.0;66.0;18.0;0.0;0.0;268.0;312.0;397.0;414.0;293.0;114.0;18.0;0.0;0.0;1026.1058709999998;1059.2981339999997;1289.413615;1247.0865179999998;705.4209139999998;187.959744;18.289152;0.0;0.0;3461.9582231401932;4376.8872724242765;5892.912549998811;6542.707301368282;5420.034115852233;2682.3566625452945;559.5073997567447;0.0;0.0;160.27903600000005;159.12520800000001;296.711548;379.704408;437.6807120000001;367.58707200000003;120.932352;0.0;0.0;122.95750000000004;128.77499999999998;231.8575;294.43499999999995;332.885;270.6;87.12;0.0;0.0;121.19000000000003;125.5;227.67000000000002;289.62;328.86;269.28;87.12;0.0;0.0;26.63610647758399;34.550108959999996;49.800242583037;58.142761587282;54.104992160621;32.036273723658;8.003032287282;0.0;0.0;3846.242925017984;3210.7268999464;6660.186018629038;8682.960304363482;10516.122147696022;9604.011957573259;3328.5177364364818;0.0;0.0;1.1304347826086956;1.1818181818181819;0.5;0.18518518518518517;1.826086956521739;2.1818181818181817;2.0476190476190474;1.6666666666666667;1.643719806763285;2.0202020202020203;1.5714285714285714;1.6172839506172836;11.652173913043478;14.181818181818182;9.452380952380953;7.666666666666667;44.61329873913042;48.149915181818166;30.700324166666665;23.094194777777776;150.51992274522578;198.94942147383074;140.30744166663837;121.16124632163485;6.968653739130437;7.232964000000001;7.064560666666667;7.031563111111111;5.3459782608695665;5.85340909090909;5.520416666666667;5.452499999999999;5.26913043478261;5.704545454545454;5.420714285714286;5.363333333333333;1.1580915859819125;1.570459498181818;1.185720061500881;1.076717807171889;167.22795326165146;145.94213181574546;158.57585758640568;160.79556119191633;0.032270417895090824;-0.0072551718340796755;-0.0008464461650143826;-0.005408580411926236;-0.01870227460529374;0.006404635984743844;0.00967262808402478;0.0;0.0;19.739130434782602;6.945179584120981;-8.262759924385634;-15.996219281663514;-5.894139886578449;8.438563327032135;4.8998109640831755;0.0;0.0;7.913043478260867;2.6918714555765586;-5.145557655954633;-5.274102079395086;0.36862003780718444;2.551984877126656;0.8506616257088853;0.0;0.0;3.3115942028985517;-1.754568367989917;0.40201638311279164;0.5437933207309394;-1.7846565847511022;0.029300567107748865;0.9083175803402638;0.0;0.0;121.73913043478264;-12.098298676748588;-1.654064272211727;-44.51795841209831;-78.02457466918715;33.7429111531191;41.68241965973536;0.0;0.0;589.5388264347828;-58.58770945935696;-8.010038402646252;-215.5844621512285;-377.8449543648394;163.40478341398816;201.8529677466916;0.0;0.0;1096.2726219649105;-108.94634752446282;-14.895008450609978;-400.8885131564228;-702.618827198784;303.8581723924475;375.3542129553767;0.0;0.0;0.11548660869565203;-0.011476930056709505;-0.0015691115311900275;-0.042231516068052095;-0.07401723251417783;0.032009875236293055;0.039541610586010356;0.0;0.0;0.5965217391304339;-0.05928166351607157;-0.00810491493384001;-0.21813799621928354;-0.3823204158790156;0.16534026465028842;0.20424385633270553;0.0;0.0;0.43826086956521704;-0.04355387523629764;-0.005954631379964166;-0.16026465028355544;-0.2808884688090729;0.12147448015123256;0.15005671077504917;0.0;0.0;4.900848691438608;-0.4870408637454456;-0.06658761809019398;-1.792158178313338;-3.1410330704833633;1.3583874090400399;1.678007975872997;0.0;0.0;26.621487874186418;-2.6456137017826453;-0.3617049982906795;-9.735031668277884;-17.062141490792584;7.378781965127962;9.114965956922628;0.0;0.0;0.0014030616476126444;-0.00032978053791271253;-2.015348011939006e-05;-0.00010015889651715252;0.8582230623818523;0.3156899810964082;-0.1967323791520389;-0.2962262829937688;0.3440453686200377;0.12235779343529812;-0.12251327752272936;-0.09766855702583493;0.14398235664776313;-0.07975310763590532;0.009571818645542659;0.010070246680202581;5.293005671077506;-0.5499226671249358;-0.03938248267170778;-0.8244066372610798;25.632122888468817;-2.6630777026980437;-0.190715200063006;-3.99230485465238;47.66402704195263;-4.952106705657401;-0.35464305834785664;-7.423861354748571;0.005021156899810958;-0.0005216786389413412;-3.735979836166732e-05;-0.0007820651123713351;0.025935727788279735;-0.002694621068912344;-0.0001929741650914288;-0.004039592522579325;0.019054820415879;-0.001979721601649893;-0.00014177693761819444;-0.0029678638941399156;0.21308037788863513;-0.022138221079338435;-0.001585419478337952;-0.033188114413209964;1.1574559945298442;-0.12025516826284752;-0.008612023768825703;-0.18027836422736823;-0.23504351250270789;-0.014363930589708493;-0.07138595562609538;0.36784140969162993;-0.22923222152297051;-0.3451623429596999;-0.5539088919832897;0.06647910805460042;0.06994083799335445;-0.10389610389610392;-0.007440476190476219;-0.15575396825396826;-0.1038961038961033;-0.007440476190475954;-0.15575396825396806;-0.10389610389610357;-0.007440476190476081;-0.15575396825396817;-0.10389610389609254;-0.007440476190471938;-0.15575396825396537;-0.1038961038961102;-0.00744047619047857;-0.15575396825396984;-0.10389610389611054;-0.007440476190478662;-0.1557539682539699;-0.1038961038961026;-0.007440476190475689;-0.15575396825396792;-0.10389610389610955;-0.0074404761904783125;-0.15575396825396964;1.7729314551786322;1.0522100235920826;1.1554290011898471;1.3171806167400886;2.069855254877282;1.6511665850872903;2.164113785557986;0.7513285401688026;0.9534403112083635;1.6428571428571428;1.1832482993197277;1.2549603174603172;1.6428571428571423;1.1832482993197277;1.2549603174603172;1.6428571428571428;1.1832482993197277;1.2549603174603172;1.6428571428571432;1.183248299319728;1.2549603174603177;1.6428571428571417;1.183248299319727;1.2549603174603168;1.6428571428571421;1.1832482993197275;1.2549603174603172;1.6428571428571432;1.1832482993197282;1.2549603174603177;1.6428571428571421;1.1832482993197275;1.254960317460317;0.2129564118060118;-0.22098077447094805;3.11339737854048;0.9872122886995459;3.11339737854048;0.9872122886995459;2.0387428397781355;1.193871756379758;6.218689126128819;5.785469764119447;12.229689126128827;11.796469764119445;20.798215402244345;20.364996040235;2.964689126128819;2.5314697641194503;2.7686891261288165;2.33546976411945;2.718689126128817;2.2854697641194512;1.8886891261288181;1.4554697641194516;11.478989126128821;11.045769764119457;3.1442082073698243;27.269244053461584;13.634622026730794;19.857268711605215;27.269244053461588;3.8956062933516553;13.634625166326952;2.602670976652737;0.37181013952181957;0.5998632724910786;18.19398530537334;2.599140757910477;2.54441611779748;27.269244053461584;13.634622026730794;19.857268711605215;27.269244053461588;3.8956062933516553;13.634625166326952;2.602670976652737;0.37181013952181957;0.5998632724910786;18.19398530537334;2.599140757910477;2.54441611779748;27.269244053461584;13.634622026730794;19.857268711605215;27.269244053461588;3.8956062933516553;13.634625166326952;2.602670976652737;0.37181013952181957;0.5998632724910786;18.19398530537334;2.599140757910477;2.54441611779748;27.269244053461584;13.634622026730794;19.857268711605215;27.269244053461588;3.8956062933516553;13.634625166326952;2.602670976652737;0.37181013952181957;0.5998632724910786;18.19398530537334;2.599140757910477;2.54441611779748;27.269244053461584;13.634622026730794;19.857268711605215;27.269244053461588;3.8956062933516553;13.634625166326952;2.602670976652737;0.37181013952181957;0.5998632724910786;18.19398530537334;2.599140757910477;2.54441611779748;27.269244053461584;13.634622026730794;19.857268711605215;27.269244053461588;3.8956062933516553;13.634625166326952;2.602670976652737;0.37181013952181957;0.5998632724910786;18.19398530537334;2.599140757910477;2.54441611779748;27.269244053461584;13.634622026730794;19.857268711605215;27.269244053461588;3.8956062933516553;13.634625166326952;2.602670976652737;0.37181013952181957;0.5998632724910786;18.19398530537334;2.599140757910477;2.54441611779748;27.269244053461584;13.634622026730794;19.857268711605215;27.269244053461588;3.8956062933516553;13.634625166326952;2.602670976652737;0.37181013952181957;0.5998632724910786;18.19398530537334;2.599140757910477;2.54441611779748;37.30296890880646;22.0;6.0;22.0;22.0;0.16588708588589557;0.0770315040742646;4.0;1.0;2.0;0.0;0.5690355937288492;0.0;0.23570226039551584;0.0;0.5690355937288492;0.0;0.23570226039551584;0.0;1.2761423749153966;0.7071067811865475;0.23570226039551584;1.2761423749153966;0.7071067811865475;0.23570226039551584;5.8618073195657985;3.1807392125526213;2.6295491105128677;1.782021738317077;0.4714045207910317;0.0;0.0;0.0;0.8374010456522569;0.5301232020921035;5.8618073195657985;3.1807392125526213;2.6295491105128677;1.782021738317077;0.4714045207910317;0.0;0.0;0.0;0.8374010456522569;0.5301232020921035;9.666666666666663;8.34276912829906;11.334622430286997;22.10269482884195;20.803921568627455;21.08;13.38843592814371;26.322317167393408;0.4202898550724636;0.3627290925347418;0.49280967088204336;0.9609867316887805;0.9045183290707589;0.9165217391304347;0.5821059099192918;1.1444485724953655;27.269244053461584;13.634622026730794;19.857268711605215;27.269244053461588;3.8956062933516553;13.634625166326952;2.602670976652737;0.37181013952181957;0.5998632724910786;18.19398530537334;2.599140757910477;2.54441611779748;4.0;1.0;2.0;0.0;9.081018518518519;1.3171296296296298;1.7685185185185182;0.0;2.2962962962962963;2.240740740740741;36.0;3.5;0.5714285714285714;0.2857142857142857;0.0;3.0;0.42857142857142855;3.0;0.42857142857142855;7.556971897277984;1.079567413896855;3.180739212552621;0.45439131607894584;7.556971897277984;1.079567413896855;3.180739212552621;0.45439131607894584;0.2334743498204741;0.033353478545782016;0.2334743498204741;0.033353478545782016;0.42173913043478256;0.7;0.42173913043478256;0.42173913043478256;0.7;-3.0;-0.42857142857142855;0.7142857142857144;0.00028571428571444457;6.0;0.8865408928220899;1.306170651709187;2.272499455586694;2.9025092380072617;3.261842390463366;3.261842390463366;20.39044053490807;30.041924989311298;52.26748747849396;66.75771247416702;75.02237498065742;75.02237498065742;0.19598292262472913;0.28874826174542273;0.502369477341597;0.6416424194479806;0.7210783055808013;0.7210783055808013;0.1988013201316891;0.2929007020200309;0.5095939684531184;0.6508697713575892;0.7314480116325032;0.7314480116325032;3.637021063234923;3.217391304347826;2.251062500470319;1.6210527180497514;1.2617195655936468;1.2617195655936468;6.640762870645904;11.680935904638826;15.164211548238454;17.11717563440989;17.479383452085642;17.479383452085642;27.765075162887893;21.217420313642563;18.721594554361914;16.500248077618878;15.917308171806827;15.917308171806827;7.0;1.0;0.0;-1.8515922783610679;109.49000000000004;46.92890371420919;34.11577042168851;11.835812092322787;11.835812092322787;34.11577042168851;11.835812092322787;34.11577042168851;0.0;11.835812092322787;6.4208216229260096;0.0;27.694948798762496;0.0;1.7685185185185182;1.3171296296296298;9.081018518518519;1.9441612972396658;12.505242858682479;1.7864632655260684;12.505242858682479;1.7864632655260684;7.0;6.0;2.0;0.0;0.0;0.0;0.0;0.0;0.0;28.0;1.9459101490553132;2.0794415416798357;1.9459101490553132;1.0986122886681098;0.0;0.0;0.0;0.0;0.0;0.0;3.367295829986474;22.358688;16.051312;2.0;0.3333333333333333;2.6885000000000012;34.292999999999985;2.0;1.1111111111111116;0.25;0.0;0.0;0.0;0.0;0.0;0.0;0.0;0.3333333333333333;0.15873015873015878;0.041666666666666664;0.0;0.0;0.0;0.0;0.0;0.0;0.0;0.5337301587301587;4.0;2.0;1.0;0.5;129.62835551474285;3.584962500721156;6.0;3.295836866004329;3.970291913552122;4.6913478822291435;5.3981627015177525;6.12029741895095;6.834108738813838;7.556427969440253;8.272059622210412;8.994296557777195;68.132829670496;2.5649493574615367;3.713572066704308;5.056245805348308;6.46302945692067;7.890956716138919;32.68875340257374;100.12520051199999;4.353269587478261;46.0;6.0;26.0;26.0;4.472222222222222;1.7777777777777777