boiling_point;SMILES;IUPAC_name;InChIKey;SpAbs_A;SpMax_A;SpDiam_A;SpAD_A;SpMAD_A;LogEE_A;VE1_A;VE2_A;VE3_A;VR1_A;VR2_A;VR3_A;nAtom;nHeavyAtom;nH;nC;ATS0dv;ATS1dv;ATS2dv;ATS3dv;ATS4dv;ATS5dv;ATS6dv;ATS7dv;ATS8dv;ATS0d;ATS1d;ATS2d;ATS3d;ATS4d;ATS5d;ATS6d;ATS7d;ATS8d;ATS0s;ATS1s;ATS2s;ATS3s;ATS4s;ATS5s;ATS6s;ATS7s;ATS8s;ATS0Z;ATS1Z;ATS2Z;ATS3Z;ATS4Z;ATS5Z;ATS6Z;ATS7Z;ATS8Z;ATS0m;ATS1m;ATS2m;ATS3m;ATS4m;ATS5m;ATS6m;ATS7m;ATS8m;ATS0v;ATS1v;ATS2v;ATS3v;ATS4v;ATS5v;ATS6v;ATS7v;ATS8v;ATS0se;ATS1se;ATS2se;ATS3se;ATS4se;ATS5se;ATS6se;ATS7se;ATS8se;ATS0pe;ATS1pe;ATS2pe;ATS3pe;ATS4pe;ATS5pe;ATS6pe;ATS7pe;ATS8pe;ATS0are;ATS1are;ATS2are;ATS3are;ATS4are;ATS5are;ATS6are;ATS7are;ATS8are;ATS0p;ATS1p;ATS2p;ATS3p;ATS4p;ATS5p;ATS6p;ATS7p;ATS8p;ATS0i;ATS1i;ATS2i;ATS3i;ATS4i;ATS5i;ATS6i;ATS7i;ATS8i;AATS0dv;AATS1dv;AATS2dv;AATS3dv;AATS0d;AATS1d;AATS2d;AATS3d;AATS0s;AATS1s;AATS2s;AATS3s;AATS0Z;AATS1Z;AATS2Z;AATS3Z;AATS0m;AATS1m;AATS2m;AATS3m;AATS0v;AATS1v;AATS2v;AATS3v;AATS0se;AATS1se;AATS2se;AATS3se;AATS0pe;AATS1pe;AATS2pe;AATS3pe;AATS0are;AATS1are;AATS2are;AATS3are;AATS0p;AATS1p;AATS2p;AATS3p;AATS0i;AATS1i;AATS2i;AATS3i;ATSC0c;ATSC1c;ATSC2c;ATSC3c;ATSC4c;ATSC5c;ATSC6c;ATSC7c;ATSC8c;ATSC0dv;ATSC1dv;ATSC2dv;ATSC3dv;ATSC4dv;ATSC5dv;ATSC6dv;ATSC7dv;ATSC8dv;ATSC0d;ATSC1d;ATSC2d;ATSC3d;ATSC4d;ATSC5d;ATSC6d;ATSC7d;ATSC8d;ATSC0s;ATSC1s;ATSC2s;ATSC3s;ATSC4s;ATSC5s;ATSC6s;ATSC7s;ATSC8s;ATSC0Z;ATSC1Z;ATSC2Z;ATSC3Z;ATSC4Z;ATSC5Z;ATSC6Z;ATSC7Z;ATSC8Z;ATSC0m;ATSC1m;ATSC2m;ATSC3m;ATSC4m;ATSC5m;ATSC6m;ATSC7m;ATSC8m;ATSC0v;ATSC1v;ATSC2v;ATSC3v;ATSC4v;ATSC5v;ATSC6v;ATSC7v;ATSC8v;ATSC0se;ATSC1se;ATSC2se;ATSC3se;ATSC4se;ATSC5se;ATSC6se;ATSC7se;ATSC8se;ATSC0pe;ATSC1pe;ATSC2pe;ATSC3pe;ATSC4pe;ATSC5pe;ATSC6pe;ATSC7pe;ATSC8pe;ATSC0are;ATSC1are;ATSC2are;ATSC3are;ATSC4are;ATSC5are;ATSC6are;ATSC7are;ATSC8are;ATSC0p;ATSC1p;ATSC2p;ATSC3p;ATSC4p;ATSC5p;ATSC6p;ATSC7p;ATSC8p;ATSC0i;ATSC1i;ATSC2i;ATSC3i;ATSC4i;ATSC5i;ATSC6i;ATSC7i;ATSC8i;AATSC0c;AATSC1c;AATSC2c;AATSC3c;AATSC0dv;AATSC1dv;AATSC2dv;AATSC3dv;AATSC0d;AATSC1d;AATSC2d;AATSC3d;AATSC0s;AATSC1s;AATSC2s;AATSC3s;AATSC0Z;AATSC1Z;AATSC2Z;AATSC3Z;AATSC0m;AATSC1m;AATSC2m;AATSC3m;AATSC0v;AATSC1v;AATSC2v;AATSC3v;AATSC0se;AATSC1se;AATSC2se;AATSC3se;AATSC0pe;AATSC1pe;AATSC2pe;AATSC3pe;AATSC0are;AATSC1are;AATSC2are;AATSC3are;AATSC0p;AATSC1p;AATSC2p;AATSC3p;AATSC0i;AATSC1i;AATSC2i;AATSC3i;MATS1c;MATS2c;MATS3c;MATS1dv;MATS2dv;MATS3dv;MATS1s;MATS2s;MATS3s;MATS1Z;MATS2Z;MATS3Z;MATS1m;MATS2m;MATS3m;MATS1v;MATS2v;MATS3v;MATS1se;MATS2se;MATS3se;MATS1pe;MATS2pe;MATS3pe;MATS1are;MATS2are;MATS3are;MATS1p;MATS2p;MATS3p;MATS1i;MATS2i;MATS3i;GATS1c;GATS2c;GATS3c;GATS1dv;GATS2dv;GATS3dv;GATS1s;GATS2s;GATS3s;GATS1Z;GATS2Z;GATS3Z;GATS1m;GATS2m;GATS3m;GATS1v;GATS2v;GATS3v;GATS1se;GATS2se;GATS3se;GATS1pe;GATS2pe;GATS3pe;GATS1are;GATS2are;GATS3are;GATS1p;GATS2p;GATS3p;GATS1i;GATS2i;GATS3i;BCUTc-1h;BCUTc-1l;BCUTdv-1h;BCUTdv-1l;BCUTd-1h;BCUTd-1l;BCUTs-1h;BCUTs-1l;BCUTZ-1h;BCUTZ-1l;BCUTm-1h;BCUTm-1l;BCUTv-1h;BCUTv-1l;BCUTse-1h;BCUTse-1l;BCUTpe-1h;BCUTpe-1l;BCUTare-1h;BCUTare-1l;BCUTp-1h;BCUTp-1l;BCUTi-1h;BCUTi-1l;BalabanJ;SpAbs_DzZ;SpMax_DzZ;SpDiam_DzZ;SpAD_DzZ;SpMAD_DzZ;LogEE_DzZ;VE1_DzZ;VE2_DzZ;VE3_DzZ;VR1_DzZ;VR2_DzZ;VR3_DzZ;SpAbs_Dzm;SpMax_Dzm;SpDiam_Dzm;SpAD_Dzm;SpMAD_Dzm;LogEE_Dzm;VE1_Dzm;VE2_Dzm;VE3_Dzm;VR1_Dzm;VR2_Dzm;VR3_Dzm;SpAbs_Dzv;SpMax_Dzv;SpDiam_Dzv;SpAD_Dzv;SpMAD_Dzv;LogEE_Dzv;VE1_Dzv;VE2_Dzv;VE3_Dzv;VR1_Dzv;VR2_Dzv;VR3_Dzv;SpAbs_Dzse;SpMax_Dzse;SpDiam_Dzse;SpAD_Dzse;SpMAD_Dzse;LogEE_Dzse;VE1_Dzse;VE2_Dzse;VE3_Dzse;VR1_Dzse;VR2_Dzse;VR3_Dzse;SpAbs_Dzpe;SpMax_Dzpe;SpDiam_Dzpe;SpAD_Dzpe;SpMAD_Dzpe;LogEE_Dzpe;VE1_Dzpe;VE2_Dzpe;VE3_Dzpe;VR1_Dzpe;VR2_Dzpe;VR3_Dzpe;SpAbs_Dzare;SpMax_Dzare;SpDiam_Dzare;SpAD_Dzare;SpMAD_Dzare;LogEE_Dzare;VE1_Dzare;VE2_Dzare;VE3_Dzare;VR1_Dzare;VR2_Dzare;VR3_Dzare;SpAbs_Dzp;SpMax_Dzp;SpDiam_Dzp;SpAD_Dzp;SpMAD_Dzp;LogEE_Dzp;VE1_Dzp;VE2_Dzp;VE3_Dzp;VR1_Dzp;VR2_Dzp;VR3_Dzp;SpAbs_Dzi;SpMax_Dzi;SpDiam_Dzi;SpAD_Dzi;SpMAD_Dzi;LogEE_Dzi;VE1_Dzi;VE2_Dzi;VE3_Dzi;VR1_Dzi;VR2_Dzi;VR3_Dzi;BertzCT;nBonds;nBondsO;nBondsS;nBondsKS;RNCG;RPCG;C1SP3;C2SP3;C3SP3;C4SP3;Xc-3d;Xc-4d;Xc-5d;Xc-6d;Xc-3dv;Xc-4dv;Xc-5dv;Xc-6dv;Xpc-4d;Xpc-5d;Xpc-6d;Xpc-4dv;Xpc-5dv;Xpc-6dv;Xp-0d;Xp-1d;Xp-2d;Xp-3d;Xp-4d;Xp-5d;Xp-6d;Xp-7d;AXp-0d;AXp-1d;Xp-0dv;Xp-1dv;Xp-2dv;Xp-3dv;Xp-4dv;Xp-5dv;Xp-6dv;Xp-7dv;AXp-0dv;AXp-1dv;SZ;Sm;Sv;Sse;Spe;Sare;Sp;Si;MZ;Mm;Mv;Mse;Mpe;Mare;Mp;Mi;SpAbs_D;SpMax_D;SpDiam_D;SpAD_D;SpMAD_D;LogEE_D;VE1_D;VE2_D;VE3_D;VR1_D;VR2_D;VR3_D;NsCH3;NssCH2;NsssCH;NssssC;SsCH3;SssCH2;SsssCH;SssssC;MAXsCH3;MINsCH3;ECIndex;ETA_alpha;ETA_shape_p;ETA_shape_y;ETA_shape_x;ETA_beta;AETA_beta;ETA_beta_s;AETA_beta_s;ETA_eta;AETA_eta;ETA_eta_L;AETA_eta_L;ETA_eta_R;AETA_eta_R;ETA_eta_RL;AETA_eta_RL;ETA_eta_B;AETA_eta_B;ETA_eta_BR;AETA_eta_BR;ETA_epsilon_1;ETA_epsilon_2;ETA_epsilon_3;ETA_epsilon_4;ETA_epsilon_5;ETA_dBeta;AETA_dBeta;ETA_psi_1;ETA_dPsi_B;fragCpx;IC0;IC1;IC2;IC3;IC4;IC5;TIC0;TIC1;TIC2;TIC3;TIC4;TIC5;SIC0;SIC1;SIC2;SIC3;SIC4;SIC5;BIC0;BIC1;BIC2;BIC3;BIC4;BIC5;CIC0;CIC1;CIC2;CIC3;CIC4;CIC5;MIC0;MIC1;MIC2;MIC3;MIC4;MIC5;ZMIC0;ZMIC1;ZMIC2;ZMIC3;ZMIC4;ZMIC5;Kier1;Lipinski;GhoseFilter;FilterItLogS;VMcGowan;LabuteASA;PEOE_VSA6;PEOE_VSA7;SMR_VSA4;SMR_VSA5;SlogP_VSA4;SlogP_VSA5;EState_VSA3;EState_VSA4;EState_VSA5;EState_VSA7;EState_VSA8;VSA_EState4;VSA_EState5;VSA_EState7;VSA_EState8;MDEC-11;MID;AMID;MID_C;AMID_C;MPC2;MPC3;MPC4;MPC5;MPC6;MPC7;MPC8;MPC9;MPC10;TMPC10;piPC1;piPC2;piPC3;piPC4;piPC5;piPC6;piPC7;piPC8;piPC9;piPC10;TpiPC10;apol;bpol;nRot;RotRatio;SLogP;SMR;GGI1;GGI2;GGI3;GGI4;GGI5;GGI6;GGI7;GGI8;GGI9;GGI10;JGI1;JGI2;JGI3;JGI4;JGI5;JGI6;JGI7;JGI8;JGI9;JGI10;JGT10;Diameter;Radius;TopoShapeIndex;PetitjeanIndex;Vabc;VAdjMat;MWC01;MWC02;MWC03;MWC04;MWC05;MWC06;MWC07;MWC08;MWC09;MWC10;TMWC10;SRW02;SRW04;SRW06;SRW08;SRW10;TSRW10;MW;AMW;WPath;WPol;Zagreb1;Zagreb2;mZagreb1;mZagreb2
135.0;CCC(C)CC(C)CC;3,5-dimethylheptane;DZJTZGHZAWTWGA-UHFFFAOYSA-N;10.290761777352396;2.074313293051942;4.148626586103884;10.290761777352396;1.1434179752613773;3.0184298905125235;2.7707830212377096;0.3078647801375233;0.9137694437423861;25.13317661447987;2.792575179386652;3.118828235170385;29.0;9.0;20.0;9.0;34.0;34.0;31.0;24.0;15.0;6.0;1.0;0.0;0.0;54.0;64.0;114.0;124.0;118.0;96.0;60.0;36.0;9.0;46.30555555555556;54.99999999999999;84.27777777777777;110.0;117.91666666666666;100.99999999999999;76.0;42.0;9.0;344.0;408.0;519.0;542.0;471.0;352.0;199.0;66.0;9.0;1318.6983689999995;1396.2547279999994;1676.8306889999997;1640.5999759999995;1341.06639;956.6975079999997;442.11804099999983;103.124448;9.144576;4433.327004362572;5682.867541405011;7720.00677332348;8556.303991278532;7883.8856326409295;6150.042642609051;3911.318539259578;1620.9320311510196;279.75369987837234;202.2339240000001;202.676768;382.170564;505.474208;563.4979440000001;498.19432000000006;372.40080400000005;244.259712;60.466176;155.32250000000002;164.22;299.42249999999996;391.03999999999996;429.735;376.69000000000005;279.96250000000003;178.86;43.56000000000001;153.05;160.0;293.85;384.84000000000003;424.26000000000005;372.6;277.29;178.20000000000002;43.56000000000001;33.992358096980006;44.5820862;65.175622872735;76.185819306074;74.160898449111;60.11935687396001;41.069874870319;20.019653005469998;4.001516143640999;4839.50224529498;4076.805802978;8508.590416560735;11640.870614440675;13484.966283150112;12191.31484129116;9227.93761852552;6466.26484700487;1664.2588682182407;1.1724137931034482;1.2142857142857142;0.5740740740740741;0.3333333333333333;1.8620689655172413;2.2857142857142856;2.111111111111111;1.7222222222222223;1.5967432950191571;1.964285714285714;1.5606995884773662;1.5277777777777777;11.862068965517242;14.571428571428571;9.61111111111111;7.527777777777778;45.47235755172412;49.86624028571426;31.05242016666666;22.786110777777772;152.8733449780197;202.95955505017898;142.96308839487926;118.83755543442405;6.9735835862068996;7.238456;7.077232666666667;7.020475111111111;5.35594827586207;5.865;5.544861111111111;5.431111111111111;5.277586206896552;5.714285714285714;5.441666666666667;5.345000000000001;1.172150279206207;1.5922173642857143;1.2069559791247224;1.0581363792510277;166.8793877687924;145.6002072492143;157.56648919556918;161.67875853389828;0.04084348768795434;-0.0072113930956300455;-0.005719729669278825;-0.008620357533662639;-0.004223144172833765;0.0010644298900487873;-0.008526780768666323;0.008035460987970358;0.004779770518075282;25.17241379310344;7.212841854934601;-8.838287752675386;-10.359096313912008;-6.6884661117716995;-5.18668252080856;0.8858501783590969;7.648038049940547;2.7395957193816884;9.310344827586206;2.8727705112960753;-3.8882282996432824;-3.3912009512485137;-2.9702734839476816;-1.5980975029726512;1.6979785969084433;2.097502972651606;0.5243757431629015;3.6609195402298855;-1.6457920465054832;-0.021865504029594418;0.025762980578676098;-0.6506143479984146;0.7269124058660328;-1.023781212841855;0.3519619500594532;0.4069560047562426;155.17241379310346;-11.890606420927488;-17.390011890606445;-45.600475624256845;-27.37812128418549;-5.945303210463722;-31.183115338882274;40.13079667063022;21.670630202140316;751.4441937931032;-57.5819305588583;-84.21357344233041;-220.82670369322224;-132.5823951117717;-28.790965279429365;-151.00861289060649;194.33901563614722;104.94306844351955;1397.342566174485;-107.07605871068867;-156.5987358643821;-410.6366851554907;-246.5426251813604;-53.53802935534425;-280.8069639687807;361.38169814857395;195.1461170002299;0.14720275862068946;-0.01127990487514695;-0.016496860879903555;-0.04325843519619413;-0.025971980975029896;-0.005639952437575084;-0.02958155053507811;0.03806967895362513;0.02055762663495786;0.7603448275862053;-0.05826397146254694;-0.08521105826397324;-0.22344233055885931;-0.13415279429250837;-0.02913198573127109;-0.1527972651605216;0.19664090368608977;0.10618608799048804;0.5586206896551719;-0.04280618311534082;-0.06260404280618458;-0.1641617122473254;-0.09856123662306743;-0.021403091557668494;-0.11225921521997509;0.14447086801427028;0.07801426872770562;6.246771423200688;-0.47867980254411097;-0.7000692112207643;-1.835737042756676;-1.102160245357823;-0.23933990127205856;-1.2553377821719407;1.6155443335863826;0.8723939401366471;33.932561514511;-2.60019628463705;-3.802787066281555;-9.971752751582446;-5.986951945376342;-1.3000981423183395;-6.819014756460062;8.775662460649565;4.738857728750731;0.0014083961271708393;-0.0002575497534153588;-0.00010592091980145972;-0.00011972718796753665;0.8680142687277048;0.2576014948190929;-0.16367199541991456;-0.14387633769322233;0.3210463733650416;0.10259894683200269;-0.0720042277711719;-0.04710001321178491;0.1262386048355133;-0.058778287375195824;-0.0004049167412887855;0.0003578191747038347;5.35077288941736;-0.4246645150331246;-0.32203725723345267;-0.6333399392257895;25.911868751486317;-2.0564975199592253;-1.559510619302415;-3.0670375512947534;48.184226419809825;-3.8241449539531667;-2.89997659008115;-5.70328729382626;0.005075957193816878;-0.0004028537455409625;-0.0003054974237019177;-0.0006008115999471407;0.026218787158145008;-0.002080856123662391;-0.0015779825604439488;-0.0031033657022063793;0.01926278240190248;-0.001528792254119315;-0.0011593341260404551;-0.0022800237812128526;0.2154059111448513;-0.017095707233718248;-0.012964244652236376;-0.025496347816064944;1.1700883280865861;-0.09286415302275178;-0.07042198270891768;-0.13849656599420065;-0.18286741098381185;-0.07520676729936183;-0.0850095975540933;0.29677103718199616;-0.18855910705225779;-0.16575342465753426;-0.4656126186738431;-0.003207550826598448;0.0028344671201813963;-0.0793650793650795;-0.06018518518518526;-0.1183641975308642;-0.07936507936507912;-0.060185185185185106;-0.11836419753086418;-0.07936507936507949;-0.060185185185185244;-0.11836419753086427;-0.07936507936506763;-0.06018518518518044;-0.11836419753086197;-0.07936507936508275;-0.06018518518518656;-0.11836419753086488;-0.07936507936508304;-0.060185185185186646;-0.11836419753086488;-0.07936507936507886;-0.06018518518518498;-0.11836419753086412;-0.07936507936508522;-0.06018518518518755;-0.11836419753086531;1.7150581922772452;1.1532108137877677;1.127352472294629;1.3506849315068497;1.8950786402841202;1.3440639269406396;2.0790162218733648;0.845882512549179;0.9206349206349205;1.6111111111111112;1.2530864197530864;1.1904320987654322;1.6111111111111116;1.2530864197530869;1.1904320987654327;1.6111111111111116;1.2530864197530869;1.1904320987654324;1.6111111111111116;1.2530864197530867;1.1904320987654322;1.6111111111111112;1.2530864197530864;1.1904320987654322;1.6111111111111107;1.2530864197530862;1.1904320987654318;1.6111111111111112;1.2530864197530867;1.1904320987654324;1.611111111111111;1.2530864197530867;1.1904320987654322;0.21475276885461475;-0.2170766652463137;3.036369907700044;0.9871444745250677;3.036369907700044;0.9871444745250677;2.029837655056413;1.2126969591626189;6.2185961697098495;5.787369158985723;12.229596169709847;11.798369158985722;20.798122445825395;20.36689543510128;2.9645961697098646;2.5333691589857303;2.7685961697098644;2.3373691589857275;2.7185961697098646;2.2873691589857326;1.8885961697098652;1.4573691589857287;11.478896169709856;11.047669158985741;3.2230469044906185;46.13745000973246;23.068725004866238;34.63549723837186;46.137450009732476;5.12638333441472;23.068725005182483;2.950645959622892;0.3278495510692102;0.9766636000873024;26.888619938838726;2.9876244376487473;3.1863426308380247;46.13745000973246;23.068725004866238;34.63549723837186;46.137450009732476;5.12638333441472;23.068725005182483;2.950645959622892;0.3278495510692102;0.9766636000873024;26.888619938838726;2.9876244376487473;3.1863426308380247;46.13745000973246;23.068725004866238;34.63549723837186;46.137450009732476;5.12638333441472;23.068725005182483;2.950645959622892;0.3278495510692102;0.9766636000873024;26.888619938838726;2.9876244376487473;3.1863426308380247;46.13745000973246;23.068725004866238;34.63549723837186;46.137450009732476;5.12638333441472;23.068725005182483;2.950645959622892;0.3278495510692102;0.9766636000873024;26.888619938838726;2.9876244376487473;3.1863426308380247;46.13745000973246;23.068725004866238;34.63549723837186;46.137450009732476;5.12638333441472;23.068725005182483;2.950645959622892;0.3278495510692102;0.9766636000873024;26.888619938838726;2.9876244376487473;3.1863426308380247;46.13745000973246;23.068725004866238;34.63549723837186;46.137450009732476;5.12638333441472;23.068725005182483;2.950645959622892;0.3278495510692102;0.9766636000873024;26.888619938838726;2.9876244376487473;3.1863426308380247;46.13745000973246;23.068725004866238;34.63549723837186;46.137450009732476;5.12638333441472;23.068725005182483;2.950645959622892;0.3278495510692102;0.9766636000873024;26.888619938838726;2.9876244376487473;3.1863426308380247;46.13745000973246;23.068725004866238;34.63549723837186;46.137450009732476;5.12638333441472;23.068725005182483;2.950645959622892;0.3278495510692102;0.9766636000873024;26.888619938838726;2.9876244376487473;3.1863426308380247;49.05865002596163;28.0;8.0;28.0;28.0;0.13048492669586065;0.06007464800883252;4.0;3.0;2.0;0.0;0.5773502691896257;0.0;0.0;0.0;0.5773502691896257;0.0;0.0;0.0;0.910683602522959;0.9023689270621824;0.922588984322123;0.910683602522959;0.9023689270621824;0.922588984322123;7.276020881938894;4.201907262607799;3.26254227236832;2.198584704241717;1.0202200572599405;0.5690355937288492;0.11785113019775792;0.0;0.8084467646598772;0.5252384078259749;7.276020881938894;4.201907262607799;3.26254227236832;2.198584704241717;1.0202200572599405;0.5690355937288492;0.11785113019775792;0.0;0.8084467646598772;0.5252384078259749;12.33333333333333;10.678461410373828;14.418278037858745;27.87836853605244;26.254901960784316;26.599999999999998;16.985544910179645;33.15289645924176;0.425287356321839;0.3682228072542699;0.49718200130547396;0.9613230529673256;0.9053414469235971;0.9172413793103448;0.5857084451786084;1.1432033261807504;46.13745000973246;23.068725004866238;34.63549723837186;46.137450009732476;5.12638333441472;23.068725005182483;2.950645959622892;0.3278495510692102;0.9766636000873024;26.888619938838726;2.9876244376487473;3.1863426308380247;4.0;3.0;2.0;0.0;9.220648148148149;4.085;1.8610185185185184;0.0;2.3394444444444447;2.2708796296296296;72.0;4.5;0.4444444444444444;0.2222222222222222;0.0;4.0;0.4444444444444444;4.0;0.4444444444444444;10.522012559059917;1.169112506562213;4.201907262607799;0.46687858473419985;10.522012559059917;1.169112506562213;4.201907262607799;0.46687858473419985;0.21230629976529602;0.02358958886281067;0.21230629976529602;0.02358958886281067;0.4241379310344827;0.7;0.4241379310344827;0.4241379310344827;0.7;-4.0;-0.4444444444444444;0.7142857142857143;0.00028571428571433355;8.0;0.8935711016541907;1.3685517054754786;2.494900822266165;3.0986861672429558;3.0986861672429558;3.0986861672429558;25.91356194797153;39.68799945878888;72.35212384571878;89.86189885004572;89.86189885004572;89.86189885004572;0.18393878085369605;0.28171203363045266;0.5135674315664234;0.6378547323159265;0.6378547323159265;0.6378547323159265;0.18587583320595183;0.28467873241398256;0.5189757907864889;0.6445719564048086;0.6445719564048086;0.6445719564048086;3.9644098934733814;3.4894292896520933;2.363080172861407;1.759294827884616;1.759294827884616;1.759294827884616;6.664965218283638;12.369957250781123;16.068214649689054;16.67683027742566;16.67683027742566;16.67683027742566;35.68332320783173;26.142133731356516;23.45135567160957;22.06079093045986;22.06079093045986;22.06079093045986;9.0;1.0;0.0;-2.7006147003950467;137.67000000000004;59.6587879430024;40.53659204461451;18.256633715248796;11.835812092322787;46.95741366754052;11.835812092322787;46.95741366754052;0.0;11.835812092322787;19.26246486877803;0.0;27.694948798762496;0.0;1.8610185185185184;4.085;9.220648148148149;1.4324702914936969;16.48648897316664;1.8318321081296267;16.48648897316664;1.8318321081296267;9.0;8.0;6.0;4.0;1.0;0.0;0.0;0.0;0.0;45.0;2.1972245773362196;2.302585092994046;2.1972245773362196;1.9459101490553132;1.6094379124341003;0.6931471805599453;0.0;0.0;0.0;0.0;3.828641396489095;28.365859999999998;20.06414;4.0;0.5;3.468700000000003;43.52700000000001;2.5;0.8888888888888893;0.5;0.24000000000000005;0.05555555555555555;0.0;0.0;0.0;0.0;0.0;0.3125;0.09876543209876548;0.0625;0.04000000000000001;0.013888888888888888;0.0;0.0;0.0;0.0;0.0;0.5276543209876544;6.0;3.0;1.0;0.5;164.22032596245742;4.0;8.0;3.5553480614894135;4.23410650459726;4.976733742420574;5.680172609017068;6.428105272684596;7.136483208590247;7.88570539124302;8.595079730073309;9.344608992781216;74.83634351289672;2.833213344056216;3.970291913552122;5.2832037287379885;6.660575149839686;8.069968149059841;35.81725228524586;128.15650064;4.419189677241379;100.0;8.0;34.0;34.0;4.972222222222222;2.3333333333333335