boiling_point;SMILES;IUPAC_name;InChIKey;SpAbs_A;SpMax_A;SpDiam_A;SpAD_A;SpMAD_A;LogEE_A;VE1_A;VE2_A;VE3_A;VR1_A;VR2_A;VR3_A;nAtom;nHeavyAtom;nH;nC;ATS0dv;ATS1dv;ATS2dv;ATS3dv;ATS4dv;ATS5dv;ATS6dv;ATS7dv;ATS8dv;ATS0d;ATS1d;ATS2d;ATS3d;ATS4d;ATS5d;ATS6d;ATS7d;ATS8d;ATS0s;ATS1s;ATS2s;ATS3s;ATS4s;ATS5s;ATS6s;ATS7s;ATS8s;ATS0Z;ATS1Z;ATS2Z;ATS3Z;ATS4Z;ATS5Z;ATS6Z;ATS7Z;ATS8Z;ATS0m;ATS1m;ATS2m;ATS3m;ATS4m;ATS5m;ATS6m;ATS7m;ATS8m;ATS0v;ATS1v;ATS2v;ATS3v;ATS4v;ATS5v;ATS6v;ATS7v;ATS8v;ATS0se;ATS1se;ATS2se;ATS3se;ATS4se;ATS5se;ATS6se;ATS7se;ATS8se;ATS0pe;ATS1pe;ATS2pe;ATS3pe;ATS4pe;ATS5pe;ATS6pe;ATS7pe;ATS8pe;ATS0are;ATS1are;ATS2are;ATS3are;ATS4are;ATS5are;ATS6are;ATS7are;ATS8are;ATS0p;ATS1p;ATS2p;ATS3p;ATS4p;ATS5p;ATS6p;ATS7p;ATS8p;ATS0i;ATS1i;ATS2i;ATS3i;ATS4i;ATS5i;ATS6i;ATS7i;ATS8i;AATS0dv;AATS1dv;AATS2dv;AATS3dv;AATS0d;AATS1d;AATS2d;AATS3d;AATS0s;AATS1s;AATS2s;AATS3s;AATS0Z;AATS1Z;AATS2Z;AATS3Z;AATS0m;AATS1m;AATS2m;AATS3m;AATS0v;AATS1v;AATS2v;AATS3v;AATS0se;AATS1se;AATS2se;AATS3se;AATS0pe;AATS1pe;AATS2pe;AATS3pe;AATS0are;AATS1are;AATS2are;AATS3are;AATS0p;AATS1p;AATS2p;AATS3p;AATS0i;AATS1i;AATS2i;AATS3i;ATSC0c;ATSC1c;ATSC2c;ATSC3c;ATSC4c;ATSC5c;ATSC6c;ATSC7c;ATSC8c;ATSC0dv;ATSC1dv;ATSC2dv;ATSC3dv;ATSC4dv;ATSC5dv;ATSC6dv;ATSC7dv;ATSC8dv;ATSC0d;ATSC1d;ATSC2d;ATSC3d;ATSC4d;ATSC5d;ATSC6d;ATSC7d;ATSC8d;ATSC0s;ATSC1s;ATSC2s;ATSC3s;ATSC4s;ATSC5s;ATSC6s;ATSC7s;ATSC8s;ATSC0Z;ATSC1Z;ATSC2Z;ATSC3Z;ATSC4Z;ATSC5Z;ATSC6Z;ATSC7Z;ATSC8Z;ATSC0m;ATSC1m;ATSC2m;ATSC3m;ATSC4m;ATSC5m;ATSC6m;ATSC7m;ATSC8m;ATSC0v;ATSC1v;ATSC2v;ATSC3v;ATSC4v;ATSC5v;ATSC6v;ATSC7v;ATSC8v;ATSC0se;ATSC1se;ATSC2se;ATSC3se;ATSC4se;ATSC5se;ATSC6se;ATSC7se;ATSC8se;ATSC0pe;ATSC1pe;ATSC2pe;ATSC3pe;ATSC4pe;ATSC5pe;ATSC6pe;ATSC7pe;ATSC8pe;ATSC0are;ATSC1are;ATSC2are;ATSC3are;ATSC4are;ATSC5are;ATSC6are;ATSC7are;ATSC8are;ATSC0p;ATSC1p;ATSC2p;ATSC3p;ATSC4p;ATSC5p;ATSC6p;ATSC7p;ATSC8p;ATSC0i;ATSC1i;ATSC2i;ATSC3i;ATSC4i;ATSC5i;ATSC6i;ATSC7i;ATSC8i;AATSC0c;AATSC1c;AATSC2c;AATSC3c;AATSC0dv;AATSC1dv;AATSC2dv;AATSC3dv;AATSC0d;AATSC1d;AATSC2d;AATSC3d;AATSC0s;AATSC1s;AATSC2s;AATSC3s;AATSC0Z;AATSC1Z;AATSC2Z;AATSC3Z;AATSC0m;AATSC1m;AATSC2m;AATSC3m;AATSC0v;AATSC1v;AATSC2v;AATSC3v;AATSC0se;AATSC1se;AATSC2se;AATSC3se;AATSC0pe;AATSC1pe;AATSC2pe;AATSC3pe;AATSC0are;AATSC1are;AATSC2are;AATSC3are;AATSC0p;AATSC1p;AATSC2p;AATSC3p;AATSC0i;AATSC1i;AATSC2i;AATSC3i;MATS1c;MATS2c;MATS3c;MATS1dv;MATS2dv;MATS3dv;MATS1s;MATS2s;MATS3s;MATS1Z;MATS2Z;MATS3Z;MATS1m;MATS2m;MATS3m;MATS1v;MATS2v;MATS3v;MATS1se;MATS2se;MATS3se;MATS1pe;MATS2pe;MATS3pe;MATS1are;MATS2are;MATS3are;MATS1p;MATS2p;MATS3p;MATS1i;MATS2i;MATS3i;GATS1c;GATS2c;GATS3c;GATS1dv;GATS2dv;GATS3dv;GATS1s;GATS2s;GATS3s;GATS1Z;GATS2Z;GATS3Z;GATS1m;GATS2m;GATS3m;GATS1v;GATS2v;GATS3v;GATS1se;GATS2se;GATS3se;GATS1pe;GATS2pe;GATS3pe;GATS1are;GATS2are;GATS3are;GATS1p;GATS2p;GATS3p;GATS1i;GATS2i;GATS3i;BCUTc-1h;BCUTc-1l;BCUTdv-1h;BCUTdv-1l;BCUTd-1h;BCUTd-1l;BCUTs-1h;BCUTs-1l;BCUTZ-1h;BCUTZ-1l;BCUTm-1h;BCUTm-1l;BCUTv-1h;BCUTv-1l;BCUTse-1h;BCUTse-1l;BCUTpe-1h;BCUTpe-1l;BCUTare-1h;BCUTare-1l;BCUTp-1h;BCUTp-1l;BCUTi-1h;BCUTi-1l;BalabanJ;SpAbs_DzZ;SpMax_DzZ;SpDiam_DzZ;SpAD_DzZ;SpMAD_DzZ;LogEE_DzZ;VE1_DzZ;VE2_DzZ;VE3_DzZ;VR1_DzZ;VR2_DzZ;VR3_DzZ;SpAbs_Dzm;SpMax_Dzm;SpDiam_Dzm;SpAD_Dzm;SpMAD_Dzm;LogEE_Dzm;VE1_Dzm;VE2_Dzm;VE3_Dzm;VR1_Dzm;VR2_Dzm;VR3_Dzm;SpAbs_Dzv;SpMax_Dzv;SpDiam_Dzv;SpAD_Dzv;SpMAD_Dzv;LogEE_Dzv;VE1_Dzv;VE2_Dzv;VE3_Dzv;VR1_Dzv;VR2_Dzv;VR3_Dzv;SpAbs_Dzse;SpMax_Dzse;SpDiam_Dzse;SpAD_Dzse;SpMAD_Dzse;LogEE_Dzse;VE1_Dzse;VE2_Dzse;VE3_Dzse;VR1_Dzse;VR2_Dzse;VR3_Dzse;SpAbs_Dzpe;SpMax_Dzpe;SpDiam_Dzpe;SpAD_Dzpe;SpMAD_Dzpe;LogEE_Dzpe;VE1_Dzpe;VE2_Dzpe;VE3_Dzpe;VR1_Dzpe;VR2_Dzpe;VR3_Dzpe;SpAbs_Dzare;SpMax_Dzare;SpDiam_Dzare;SpAD_Dzare;SpMAD_Dzare;LogEE_Dzare;VE1_Dzare;VE2_Dzare;VE3_Dzare;VR1_Dzare;VR2_Dzare;VR3_Dzare;SpAbs_Dzp;SpMax_Dzp;SpDiam_Dzp;SpAD_Dzp;SpMAD_Dzp;LogEE_Dzp;VE1_Dzp;VE2_Dzp;VE3_Dzp;VR1_Dzp;VR2_Dzp;VR3_Dzp;SpAbs_Dzi;SpMax_Dzi;SpDiam_Dzi;SpAD_Dzi;SpMAD_Dzi;LogEE_Dzi;VE1_Dzi;VE2_Dzi;VE3_Dzi;VR1_Dzi;VR2_Dzi;VR3_Dzi;BertzCT;nBonds;nBondsO;nBondsS;nBondsKS;RNCG;RPCG;C1SP3;C2SP3;C3SP3;C4SP3;Xc-3d;Xc-4d;Xc-5d;Xc-6d;Xc-3dv;Xc-4dv;Xc-5dv;Xc-6dv;Xpc-4d;Xpc-5d;Xpc-6d;Xpc-4dv;Xpc-5dv;Xpc-6dv;Xp-0d;Xp-1d;Xp-2d;Xp-3d;Xp-4d;Xp-5d;Xp-6d;Xp-7d;AXp-0d;AXp-1d;Xp-0dv;Xp-1dv;Xp-2dv;Xp-3dv;Xp-4dv;Xp-5dv;Xp-6dv;Xp-7dv;AXp-0dv;AXp-1dv;SZ;Sm;Sv;Sse;Spe;Sare;Sp;Si;MZ;Mm;Mv;Mse;Mpe;Mare;Mp;Mi;SpAbs_D;SpMax_D;SpDiam_D;SpAD_D;SpMAD_D;LogEE_D;VE1_D;VE2_D;VE3_D;VR1_D;VR2_D;VR3_D;NsCH3;NssCH2;NsssCH;NssssC;SsCH3;SssCH2;SsssCH;SssssC;MAXsCH3;MINsCH3;ECIndex;ETA_alpha;ETA_shape_p;ETA_shape_y;ETA_shape_x;ETA_beta;AETA_beta;ETA_beta_s;AETA_beta_s;ETA_eta;AETA_eta;ETA_eta_L;AETA_eta_L;ETA_eta_R;AETA_eta_R;ETA_eta_RL;AETA_eta_RL;ETA_eta_B;AETA_eta_B;ETA_eta_BR;AETA_eta_BR;ETA_epsilon_1;ETA_epsilon_2;ETA_epsilon_3;ETA_epsilon_4;ETA_epsilon_5;ETA_dBeta;AETA_dBeta;ETA_psi_1;ETA_dPsi_B;fragCpx;IC0;IC1;IC2;IC3;IC4;IC5;TIC0;TIC1;TIC2;TIC3;TIC4;TIC5;SIC0;SIC1;SIC2;SIC3;SIC4;SIC5;BIC0;BIC1;BIC2;BIC3;BIC4;BIC5;CIC0;CIC1;CIC2;CIC3;CIC4;CIC5;MIC0;MIC1;MIC2;MIC3;MIC4;MIC5;ZMIC0;ZMIC1;ZMIC2;ZMIC3;ZMIC4;ZMIC5;Kier1;Lipinski;GhoseFilter;FilterItLogS;VMcGowan;LabuteASA;PEOE_VSA6;PEOE_VSA7;SMR_VSA4;SMR_VSA5;SlogP_VSA4;SlogP_VSA5;EState_VSA3;EState_VSA4;EState_VSA5;EState_VSA7;EState_VSA8;VSA_EState4;VSA_EState5;VSA_EState7;VSA_EState8;MDEC-11;MID;AMID;MID_C;AMID_C;MPC2;MPC3;MPC4;MPC5;MPC6;MPC7;MPC8;MPC9;MPC10;TMPC10;piPC1;piPC2;piPC3;piPC4;piPC5;piPC6;piPC7;piPC8;piPC9;piPC10;TpiPC10;apol;bpol;nRot;RotRatio;SLogP;SMR;GGI1;GGI2;GGI3;GGI4;GGI5;GGI6;GGI7;GGI8;GGI9;GGI10;JGI1;JGI2;JGI3;JGI4;JGI5;JGI6;JGI7;JGI8;JGI9;JGI10;JGT10;Diameter;Radius;TopoShapeIndex;PetitjeanIndex;Vabc;VAdjMat;MWC01;MWC02;MWC03;MWC04;MWC05;MWC06;MWC07;MWC08;MWC09;MWC10;TMWC10;SRW02;SRW04;SRW06;SRW08;SRW10;TSRW10;MW;AMW;WPath;WPol;Zagreb1;Zagreb2;mZagreb1;mZagreb2
92.0;CCCC(C)CC;3-methylhexane;VLJXXKKOSFGPHI-UHFFFAOYSA-N;7.878462024097667;1.9696155060244158;3.9392310120488325;7.878462024097667;1.1254945748710952;2.7528395371084313;2.4583869038043042;0.3511981291149006;0.5428304607596349;16.738731521627685;2.3912473602325264;2.4610503429604464;23.0;7.0;16.0;7.0;24.0;23.0;19.0;12.0;5.0;1.0;0.0;0.0;0.0;40.0;47.0;81.0;85.0;72.0;51.0;27.0;9.0;0.0;36.52777777777778;43.25;65.25;79.58333333333331;78.0;61.0;33.0;9.0;0.0;268.0;312.0;372.0;359.0;279.0;160.0;57.0;9.0;0.0;1026.1058709999998;1059.2981339999997;1168.3476059999998;1059.4743649999998;750.7962029999999;366.4273209999999;93.979872;9.144576;0.0;3461.9582231401932;4376.8872724242765;5667.785136559589;5815.662656291529;4863.490597775553;3129.6476077436755;1341.1783312726475;279.75369987837234;0.0;160.27903600000005;159.12520800000001;296.68783199999996;377.28568400000006;374.843244;309.53962;183.79353600000002;60.466176;0.0;122.95750000000004;128.775;231.735;289.6925;284.8275;231.7825;135.3;43.56000000000001;0.0;121.19000000000003;125.5;227.58;285.57000000000005;281.43;229.77000000000004;134.64000000000001;43.56000000000001;0.0;26.63610647758399;34.55010896;48.793818298188;53.122748871527;47.096311870923;33.054770295772;16.018136861829;4.001516143640999;0.0;3846.242925017984;3210.7268999464004;6654.719105940589;8868.264017543128;9048.100818034323;7754.449376175372;4802.0059787866285;1664.2588682182407;0.0;1.0434782608695652;1.0454545454545454;0.4523809523809524;0.2222222222222222;1.7391304347826086;2.1363636363636362;1.9285714285714286;1.5740740740740742;1.5881642512077294;1.9659090909090908;1.5535714285714286;1.473765432098765;11.652173913043478;14.181818181818182;8.857142857142858;6.648148148148148;44.61329873913042;48.149915181818166;27.817800142857138;19.619895648148145;150.51992274522578;198.94942147383074;134.9472651561807;107.69745659799128;6.968653739130437;7.232964000000001;7.063995999999999;6.986771925925927;5.3459782608695665;5.853409090909091;5.5175;5.364675925925926;5.26913043478261;5.704545454545454;5.418571428571429;5.288333333333334;1.1580915859819125;1.5704594981818183;1.1617575785282857;0.9837546087319815;167.22795326165146;145.94213181574548;158.44569299858546;164.22711143598386;0.032980918500248854;-0.005839539484294009;-0.0081442857686058;-0.00343906618652478;-0.004997027289888788;-0.001992364772954644;0.0031440855769164096;0.004777738675227183;0.0;17.7391304347826;3.9451795841209814;-7.132325141776938;-7.735349716446126;-5.344045368620036;0.7277882797731576;4.2192816635160675;2.4499054820415878;0.0;5.913043478260867;1.6918714555765584;-2.8412098298676765;-2.969754253308129;-1.3610586011342152;0.8223062381852563;1.275992438563328;0.42533081285444263;0.0;2.8454106280193248;-1.1745956731779044;-0.30828607435412736;0.13468809073724014;-0.23850031505986125;-0.16493383742911127;-0.06852551984877098;0.39744801512287353;0.0;121.73913043478264;-12.098298676748588;-26.65406427221173;-23.865784499054822;-28.213610586011335;-7.750472589792054;16.871455576559555;20.841209829867676;0.0;589.5388264347828;-58.58770945935696;-129.07604740264625;-115.57341123818517;-136.62836932514188;-37.53275137240095;81.70239170699409;100.92648387334582;0.0;1096.2726219649105;-108.94634752446282;-240.0224218898326;-214.91369335880418;-254.06628700040824;-69.79375388285942;151.92908619622375;187.67710647768834;0.0;0.11548660869565203;-0.011476930056709505;-0.02528511153119;-0.022640037807183072;-0.026764559546314015;-0.007352408317581143;0.01600493761814653;0.019770805293005178;0.0;0.5965217391304339;-0.05928166351607157;-0.13060491493383977;-0.11694234404536916;-0.13824669187145455;-0.03797731568997867;0.08267013232514422;0.10212192816635277;0.0;0.43826086956521704;-0.04355387523629764;-0.09595463137996407;-0.08591682419659785;-0.10156899810964018;-0.027901701323249588;0.060737240075616296;0.07502835538752459;0.0;4.900848691438608;-0.4870408637454456;-1.073011902939194;-0.9607642038728625;-1.1357945142813868;-0.31201055333693395;0.6791937045200201;0.8390039879364986;0.0;26.621487874186418;-2.6456137017826453;-5.8286176867396735;-5.218886403906916;-6.169653827984943;-1.6948462777043205;3.6893909825639812;4.557482978461314;0.0;0.0014339529782716894;-0.00026543361292245496;-0.0001939115659191857;-6.368641086157e-05;0.7712665406427217;0.17932634473277187;-0.1698172652804033;-0.14324721697122456;0.2570888468809073;0.07690324798075265;-0.06764785309208754;-0.054995449135335724;0.1237135055660576;-0.05339071241717747;-0.007340144627479223;0.002494223902541484;5.293005671077506;-0.5499226671249358;-0.6346205779098031;-0.4419589722047189;25.632122888468817;-2.6630777026980437;-3.07323922387253;-2.1402483562626884;47.66402704195263;-4.952106705657401;-5.714819568805538;-3.9798832103482256;0.005021156899810958;-0.0005216786389413412;-0.0006020264650283333;-0.0004192599593922791;0.025935727788279735;-0.002694621068912344;-0.00310964083175809;-0.0021655989638031327;0.019054820415879;-0.001979721601649893;-0.002284634080475335;-0.0015910522999369972;0.21308037788863513;-0.022138221079338435;-0.02554790245093319;-0.017791929701349306;1.1574559945298442;-0.12025516826284752;-0.13877661158903984;-0.09664604451679475;-0.18510621822646933;-0.13522867824641147;-0.044413179390533276;0.2325089126559715;-0.2201797385620917;-0.1857298474945535;-0.4315673715079488;-0.059331797235023034;0.020161290322580648;-0.10389610389610392;-0.11989795918367348;-0.08349867724867722;-0.1038961038961033;-0.11989795918367321;-0.08349867724867717;-0.10389610389610357;-0.11989795918367334;-0.08349867724867721;-0.10389610389609254;-0.11989795918366923;-0.08349867724867628;-0.1038961038961102;-0.1198979591836758;-0.08349867724867775;-0.10389610389611054;-0.11989795918367592;-0.0834986772486778;-0.1038961038961026;-0.11989795918367299;-0.08349867724867714;-0.10389610389610955;-0.11989795918367555;-0.08349867724867772;1.7233683971016078;1.2144374147545536;1.024555187150916;1.409313725490197;1.83076563958917;1.3090958605664496;2.0403225806451606;0.9204462769827791;0.8590831918505938;1.6428571428571428;1.290816326530612;1.087632275132275;1.6428571428571423;1.2908163265306118;1.0876322751322751;1.6428571428571428;1.290816326530612;1.087632275132275;1.6428571428571432;1.2908163265306123;1.0876322751322753;1.6428571428571417;1.2908163265306116;1.0876322751322742;1.6428571428571421;1.2908163265306116;1.0876322751322747;1.6428571428571432;1.2908163265306125;1.0876322751322751;1.6428571428571421;1.2908163265306118;1.0876322751322747;0.2031479070777494;-0.2066097824631991;3.025702943388788;0.9871324252642953;3.025702943388788;0.9871324252642953;2.0282717604272604;1.2341024893639654;6.206680290127225;5.797525617986417;12.217680290127236;11.808525617986415;20.786206566242768;20.37705189410196;2.9526802901272293;2.543525617986419;2.75668029012723;2.347525617986419;2.7066802901272284;2.297525617986421;1.8766802901272284;1.467525617986418;11.466980290127216;11.057825617986403;2.8318199660707846;29.727157377265137;14.86357868863257;22.55648516754927;29.72715737726514;4.246736768180734;14.863579652764024;2.600885235663396;0.3715550336661994;0.5991769183953096;17.78534660559421;2.540763800799173;2.5216999499191965;29.727157377265137;14.86357868863257;22.55648516754927;29.72715737726514;4.246736768180734;14.863579652764024;2.600885235663396;0.3715550336661994;0.5991769183953096;17.78534660559421;2.540763800799173;2.5216999499191965;29.727157377265137;14.86357868863257;22.55648516754927;29.72715737726514;4.246736768180734;14.863579652764024;2.600885235663396;0.3715550336661994;0.5991769183953096;17.78534660559421;2.540763800799173;2.5216999499191965;29.727157377265137;14.86357868863257;22.55648516754927;29.72715737726514;4.246736768180734;14.863579652764024;2.600885235663396;0.3715550336661994;0.5991769183953096;17.78534660559421;2.540763800799173;2.5216999499191965;29.727157377265137;14.86357868863257;22.55648516754927;29.72715737726514;4.246736768180734;14.863579652764024;2.600885235663396;0.3715550336661994;0.5991769183953096;17.78534660559421;2.540763800799173;2.5216999499191965;29.727157377265137;14.86357868863257;22.55648516754927;29.72715737726514;4.246736768180734;14.863579652764024;2.600885235663396;0.3715550336661994;0.5991769183953096;17.78534660559421;2.540763800799173;2.5216999499191965;29.727157377265137;14.86357868863257;22.55648516754927;29.72715737726514;4.246736768180734;14.863579652764024;2.600885235663396;0.3715550336661994;0.5991769183953096;17.78534660559421;2.540763800799173;2.5216999499191965;29.727157377265137;14.86357868863257;22.55648516754927;29.72715737726514;4.246736768180734;14.863579652764024;2.600885235663396;0.3715550336661994;0.5991769183953096;17.78534660559421;2.540763800799173;2.5216999499191965;31.019550008653873;22.0;6.0;22.0;22.0;0.1642311511083001;0.07530301391300596;3.0;3.0;1.0;0.0;0.28867513459481287;0.0;0.0;0.0;0.28867513459481287;0.0;0.0;0.0;0.4927992798267444;0.408248290463863;0.2041241452319315;0.4927992798267444;0.408248290463863;0.2041241452319315;5.698670612749268;3.308060412490447;2.302095140581215;1.478397839480233;0.6969234250586759;0.2041241452319315;0.0;0.0;0.814095801821324;0.5513434020817412;5.698670612749268;3.308060412490447;2.302095140581215;1.478397839480233;0.6969234250586759;0.2041241452319315;0.0;0.0;0.814095801821324;0.5513434020817412;9.666666666666663;8.34276912829906;11.334622430286997;22.10269482884195;20.803921568627455;21.08;13.38843592814371;26.322317167393408;0.4202898550724636;0.3627290925347418;0.49280967088204336;0.9609867316887805;0.9045183290707589;0.9165217391304347;0.5821059099192918;1.1444485724953655;29.727157377265137;14.86357868863257;22.55648516754927;29.72715737726514;4.246736768180734;14.863579652764024;2.600885235663396;0.3715550336661994;0.5991769183953096;17.78534660559421;2.540763800799173;2.5216999499191965;3.0;3.0;1.0;0.0;6.8015740740740736;4.082685185185185;0.949074074074074;0.0;2.3090277777777777;2.2422222222222223;45.0;3.5;0.42857142857142855;0.14285714285714285;0.0;3.0;0.42857142857142855;3.0;0.42857142857142855;7.078927865211194;1.0112754093158849;3.308060412490447;0.4725800589272067;7.078927865211194;1.0112754093158849;3.308060412490447;0.4725800589272067;0.10615314988264801;0.015164735697521145;0.10615314988264801;0.015164735697521145;0.42173913043478256;0.7;0.42173913043478256;0.42173913043478256;0.7;-3.0;-0.42857142857142855;0.7142857142857144;0.00028571428571444457;6.0;0.8865408928220899;1.3274847819558417;2.521861955304502;3.3816201079487347;3.642489673166126;3.642489673166126;20.39044053490807;30.53214998498436;58.002824972003545;77.7772624828209;83.77726248282089;83.77726248282089;0.19598292262472913;0.2934600641820215;0.5574947308785612;0.7475569342917416;0.8052259941502208;0.8052259941502208;0.1988013201316891;0.29768026409641224;0.5655119690062939;0.7583074250574745;0.8168058139837985;0.8168058139837985;3.637021063234923;3.1960771741011715;2.001700000752511;1.1419418481082784;0.8810722828908872;0.8810722828908872;6.640762870645904;11.936939923031396;16.73348317344551;18.556902000006545;18.819858521745676;18.819858521745676;27.765075162887893;20.806172767965645;17.57522092604423;14.47969056840214;13.745134472921903;13.745134472921903;7.0;1.0;0.0;-2.225392278361068;109.49000000000004;46.92890371420919;40.0336764678499;5.917906046161393;5.917906046161393;40.0336764678499;5.917906046161393;40.0336764678499;0.0;5.917906046161393;19.26246486877803;0.0;20.771211599071872;0.0;0.949074074074074;4.082685185185185;6.8015740740740736;0.7663094323935531;12.665375228258844;1.809339318322692;12.665375228258844;1.809339318322692;6.0;5.0;3.0;1.0;0.0;0.0;0.0;0.0;0.0;28.0;1.9459101490553132;1.9459101490553132;1.791759469228055;1.3862943611198906;0.6931471805599453;0.0;0.0;0.0;0.0;0.0;3.367295829986474;22.358688;16.051312;3.0;0.5;2.832600000000001;34.362999999999985;1.5;0.666666666666667;0.25;0.08000000000000002;0.0;0.0;0.0;0.0;0.0;0.0;0.24999999999999997;0.11111111111111116;0.05;0.026666666666666672;0.0;0.0;0.0;0.0;0.0;0.0;0.43777777777777777;5.0;3.0;0.6666666666666666;0.4;129.62835551474285;3.584962500721156;6.0;3.2188758248682006;3.8501476017100584;4.532599493153256;5.187385805840755;5.877735781779639;6.53813982376767;7.2305631534092925;7.892452043520352;8.585412430393381;65.9133119584426;2.5649493574615367;3.6109179126442243;4.844187086458591;6.150602768446279;7.48605261786314;31.656709742873772;100.12520051199999;4.353269587478261;50.0;5.0;24.0;23.0;3.861111111111111;1.9166666666666667