boiling_point;SMILES;IUPAC_name;InChIKey;SpAbs_A;SpMax_A;SpDiam_A;SpAD_A;SpMAD_A;LogEE_A;VE1_A;VE2_A;VE3_A;VR1_A;VR2_A;VR3_A;nAtom;nHeavyAtom;nH;nC;ATS0dv;ATS1dv;ATS2dv;ATS3dv;ATS4dv;ATS5dv;ATS6dv;ATS7dv;ATS8dv;ATS0d;ATS1d;ATS2d;ATS3d;ATS4d;ATS5d;ATS6d;ATS7d;ATS8d;ATS0s;ATS1s;ATS2s;ATS3s;ATS4s;ATS5s;ATS6s;ATS7s;ATS8s;ATS0Z;ATS1Z;ATS2Z;ATS3Z;ATS4Z;ATS5Z;ATS6Z;ATS7Z;ATS8Z;ATS0m;ATS1m;ATS2m;ATS3m;ATS4m;ATS5m;ATS6m;ATS7m;ATS8m;ATS0v;ATS1v;ATS2v;ATS3v;ATS4v;ATS5v;ATS6v;ATS7v;ATS8v;ATS0se;ATS1se;ATS2se;ATS3se;ATS4se;ATS5se;ATS6se;ATS7se;ATS8se;ATS0pe;ATS1pe;ATS2pe;ATS3pe;ATS4pe;ATS5pe;ATS6pe;ATS7pe;ATS8pe;ATS0are;ATS1are;ATS2are;ATS3are;ATS4are;ATS5are;ATS6are;ATS7are;ATS8are;ATS0p;ATS1p;ATS2p;ATS3p;ATS4p;ATS5p;ATS6p;ATS7p;ATS8p;ATS0i;ATS1i;ATS2i;ATS3i;ATS4i;ATS5i;ATS6i;ATS7i;ATS8i;AATS0dv;AATS1dv;AATS2dv;AATS3dv;AATS0d;AATS1d;AATS2d;AATS3d;AATS0s;AATS1s;AATS2s;AATS3s;AATS0Z;AATS1Z;AATS2Z;AATS3Z;AATS0m;AATS1m;AATS2m;AATS3m;AATS0v;AATS1v;AATS2v;AATS3v;AATS0se;AATS1se;AATS2se;AATS3se;AATS0pe;AATS1pe;AATS2pe;AATS3pe;AATS0are;AATS1are;AATS2are;AATS3are;AATS0p;AATS1p;AATS2p;AATS3p;AATS0i;AATS1i;AATS2i;AATS3i;ATSC0c;ATSC1c;ATSC2c;ATSC3c;ATSC4c;ATSC5c;ATSC6c;ATSC7c;ATSC8c;ATSC0dv;ATSC1dv;ATSC2dv;ATSC3dv;ATSC4dv;ATSC5dv;ATSC6dv;ATSC7dv;ATSC8dv;ATSC0d;ATSC1d;ATSC2d;ATSC3d;ATSC4d;ATSC5d;ATSC6d;ATSC7d;ATSC8d;ATSC0s;ATSC1s;ATSC2s;ATSC3s;ATSC4s;ATSC5s;ATSC6s;ATSC7s;ATSC8s;ATSC0Z;ATSC1Z;ATSC2Z;ATSC3Z;ATSC4Z;ATSC5Z;ATSC6Z;ATSC7Z;ATSC8Z;ATSC0m;ATSC1m;ATSC2m;ATSC3m;ATSC4m;ATSC5m;ATSC6m;ATSC7m;ATSC8m;ATSC0v;ATSC1v;ATSC2v;ATSC3v;ATSC4v;ATSC5v;ATSC6v;ATSC7v;ATSC8v;ATSC0se;ATSC1se;ATSC2se;ATSC3se;ATSC4se;ATSC5se;ATSC6se;ATSC7se;ATSC8se;ATSC0pe;ATSC1pe;ATSC2pe;ATSC3pe;ATSC4pe;ATSC5pe;ATSC6pe;ATSC7pe;ATSC8pe;ATSC0are;ATSC1are;ATSC2are;ATSC3are;ATSC4are;ATSC5are;ATSC6are;ATSC7are;ATSC8are;ATSC0p;ATSC1p;ATSC2p;ATSC3p;ATSC4p;ATSC5p;ATSC6p;ATSC7p;ATSC8p;ATSC0i;ATSC1i;ATSC2i;ATSC3i;ATSC4i;ATSC5i;ATSC6i;ATSC7i;ATSC8i;AATSC0c;AATSC1c;AATSC2c;AATSC3c;AATSC0dv;AATSC1dv;AATSC2dv;AATSC3dv;AATSC0d;AATSC1d;AATSC2d;AATSC3d;AATSC0s;AATSC1s;AATSC2s;AATSC3s;AATSC0Z;AATSC1Z;AATSC2Z;AATSC3Z;AATSC0m;AATSC1m;AATSC2m;AATSC3m;AATSC0v;AATSC1v;AATSC2v;AATSC3v;AATSC0se;AATSC1se;AATSC2se;AATSC3se;AATSC0pe;AATSC1pe;AATSC2pe;AATSC3pe;AATSC0are;AATSC1are;AATSC2are;AATSC3are;AATSC0p;AATSC1p;AATSC2p;AATSC3p;AATSC0i;AATSC1i;AATSC2i;AATSC3i;MATS1c;MATS2c;MATS3c;MATS1dv;MATS2dv;MATS3dv;MATS1s;MATS2s;MATS3s;MATS1Z;MATS2Z;MATS3Z;MATS1m;MATS2m;MATS3m;MATS1v;MATS2v;MATS3v;MATS1se;MATS2se;MATS3se;MATS1pe;MATS2pe;MATS3pe;MATS1are;MATS2are;MATS3are;MATS1p;MATS2p;MATS3p;MATS1i;MATS2i;MATS3i;GATS1c;GATS2c;GATS3c;GATS1dv;GATS2dv;GATS3dv;GATS1s;GATS2s;GATS3s;GATS1Z;GATS2Z;GATS3Z;GATS1m;GATS2m;GATS3m;GATS1v;GATS2v;GATS3v;GATS1se;GATS2se;GATS3se;GATS1pe;GATS2pe;GATS3pe;GATS1are;GATS2are;GATS3are;GATS1p;GATS2p;GATS3p;GATS1i;GATS2i;GATS3i;BCUTc-1h;BCUTc-1l;BCUTdv-1h;BCUTdv-1l;BCUTd-1h;BCUTd-1l;BCUTs-1h;BCUTs-1l;BCUTZ-1h;BCUTZ-1l;BCUTm-1h;BCUTm-1l;BCUTv-1h;BCUTv-1l;BCUTse-1h;BCUTse-1l;BCUTpe-1h;BCUTpe-1l;BCUTare-1h;BCUTare-1l;BCUTp-1h;BCUTp-1l;BCUTi-1h;BCUTi-1l;BalabanJ;SpAbs_DzZ;SpMax_DzZ;SpDiam_DzZ;SpAD_DzZ;SpMAD_DzZ;LogEE_DzZ;VE1_DzZ;VE2_DzZ;VE3_DzZ;VR1_DzZ;VR2_DzZ;VR3_DzZ;SpAbs_Dzm;SpMax_Dzm;SpDiam_Dzm;SpAD_Dzm;SpMAD_Dzm;LogEE_Dzm;VE1_Dzm;VE2_Dzm;VE3_Dzm;VR1_Dzm;VR2_Dzm;VR3_Dzm;SpAbs_Dzv;SpMax_Dzv;SpDiam_Dzv;SpAD_Dzv;SpMAD_Dzv;LogEE_Dzv;VE1_Dzv;VE2_Dzv;VE3_Dzv;VR1_Dzv;VR2_Dzv;VR3_Dzv;SpAbs_Dzse;SpMax_Dzse;SpDiam_Dzse;SpAD_Dzse;SpMAD_Dzse;LogEE_Dzse;VE1_Dzse;VE2_Dzse;VE3_Dzse;VR1_Dzse;VR2_Dzse;VR3_Dzse;SpAbs_Dzpe;SpMax_Dzpe;SpDiam_Dzpe;SpAD_Dzpe;SpMAD_Dzpe;LogEE_Dzpe;VE1_Dzpe;VE2_Dzpe;VE3_Dzpe;VR1_Dzpe;VR2_Dzpe;VR3_Dzpe;SpAbs_Dzare;SpMax_Dzare;SpDiam_Dzare;SpAD_Dzare;SpMAD_Dzare;LogEE_Dzare;VE1_Dzare;VE2_Dzare;VE3_Dzare;VR1_Dzare;VR2_Dzare;VR3_Dzare;SpAbs_Dzp;SpMax_Dzp;SpDiam_Dzp;SpAD_Dzp;SpMAD_Dzp;LogEE_Dzp;VE1_Dzp;VE2_Dzp;VE3_Dzp;VR1_Dzp;VR2_Dzp;VR3_Dzp;SpAbs_Dzi;SpMax_Dzi;SpDiam_Dzi;SpAD_Dzi;SpMAD_Dzi;LogEE_Dzi;VE1_Dzi;VE2_Dzi;VE3_Dzi;VR1_Dzi;VR2_Dzi;VR3_Dzi;BertzCT;nBonds;nBondsO;nBondsS;nBondsKS;RNCG;RPCG;C1SP3;C2SP3;C3SP3;C4SP3;Xc-3d;Xc-4d;Xc-5d;Xc-6d;Xc-3dv;Xc-4dv;Xc-5dv;Xc-6dv;Xpc-4d;Xpc-5d;Xpc-6d;Xpc-4dv;Xpc-5dv;Xpc-6dv;Xp-0d;Xp-1d;Xp-2d;Xp-3d;Xp-4d;Xp-5d;Xp-6d;Xp-7d;AXp-0d;AXp-1d;Xp-0dv;Xp-1dv;Xp-2dv;Xp-3dv;Xp-4dv;Xp-5dv;Xp-6dv;Xp-7dv;AXp-0dv;AXp-1dv;SZ;Sm;Sv;Sse;Spe;Sare;Sp;Si;MZ;Mm;Mv;Mse;Mpe;Mare;Mp;Mi;SpAbs_D;SpMax_D;SpDiam_D;SpAD_D;SpMAD_D;LogEE_D;VE1_D;VE2_D;VE3_D;VR1_D;VR2_D;VR3_D;NsCH3;NssCH2;NsssCH;NssssC;SsCH3;SssCH2;SsssCH;SssssC;MAXsCH3;MINsCH3;ECIndex;ETA_alpha;ETA_shape_p;ETA_shape_y;ETA_shape_x;ETA_beta;AETA_beta;ETA_beta_s;AETA_beta_s;ETA_eta;AETA_eta;ETA_eta_L;AETA_eta_L;ETA_eta_R;AETA_eta_R;ETA_eta_RL;AETA_eta_RL;ETA_eta_B;AETA_eta_B;ETA_eta_BR;AETA_eta_BR;ETA_epsilon_1;ETA_epsilon_2;ETA_epsilon_3;ETA_epsilon_4;ETA_epsilon_5;ETA_dBeta;AETA_dBeta;ETA_psi_1;ETA_dPsi_B;fragCpx;IC0;IC1;IC2;IC3;IC4;IC5;TIC0;TIC1;TIC2;TIC3;TIC4;TIC5;SIC0;SIC1;SIC2;SIC3;SIC4;SIC5;BIC0;BIC1;BIC2;BIC3;BIC4;BIC5;CIC0;CIC1;CIC2;CIC3;CIC4;CIC5;MIC0;MIC1;MIC2;MIC3;MIC4;MIC5;ZMIC0;ZMIC1;ZMIC2;ZMIC3;ZMIC4;ZMIC5;Kier1;Lipinski;GhoseFilter;FilterItLogS;VMcGowan;LabuteASA;PEOE_VSA6;PEOE_VSA7;SMR_VSA4;SMR_VSA5;SlogP_VSA4;SlogP_VSA5;EState_VSA3;EState_VSA4;EState_VSA5;EState_VSA7;EState_VSA8;VSA_EState4;VSA_EState5;VSA_EState7;VSA_EState8;MDEC-11;MID;AMID;MID_C;AMID_C;MPC2;MPC3;MPC4;MPC5;MPC6;MPC7;MPC8;MPC9;MPC10;TMPC10;piPC1;piPC2;piPC3;piPC4;piPC5;piPC6;piPC7;piPC8;piPC9;piPC10;TpiPC10;apol;bpol;nRot;RotRatio;SLogP;SMR;GGI1;GGI2;GGI3;GGI4;GGI5;GGI6;GGI7;GGI8;GGI9;GGI10;JGI1;JGI2;JGI3;JGI4;JGI5;JGI6;JGI7;JGI8;JGI9;JGI10;JGT10;Diameter;Radius;TopoShapeIndex;PetitjeanIndex;Vabc;VAdjMat;MWC01;MWC02;MWC03;MWC04;MWC05;MWC06;MWC07;MWC08;MWC09;MWC10;TMWC10;SRW02;SRW04;SRW06;SRW08;SRW10;TSRW10;MW;AMW;WPath;WPol;Zagreb1;Zagreb2;mZagreb1;mZagreb2
158.0;CCC(C)CCCC(C)C;2,6-dimethyloctane;ZALHPSXXQIPKTQ-UHFFFAOYSA-N;11.178985606196557;2.0314421132823886;4.062884226564777;11.178985606196557;1.1178985606196556;3.1236371063524735;2.9728511046941213;0.29728511046941214;1.0895214602505625;29.23336652954241;2.923336652954241;3.3753107462695566;32.0;10.0;22.0;10.0;38.0;37.0;32.0;25.0;21.0;17.0;9.0;2.0;0.0;60.0;71.0;126.0;134.0;131.0;104.0;84.0;57.0;45.0;50.55555555555556;60.16666666666666;94.16666666666666;123.58333333333333;124.3611111111111;96.66666666666666;76.33333333333331;72.0;57.0;382.0;456.0;580.0;581.0;480.0;377.0;329.0;245.0;105.0;1464.9946180000002;1564.733025;1870.5392259999999;1716.2906959999996;1350.2109659999996;1077.7635169999996;992.9282209999998;620.5856179999998;178.81516799999997;4919.011394973762;6335.857675895377;8633.553884985815;9337.974922794434;8163.639332519301;6375.170056048273;5313.745424653998;4358.609484457958;2402.6029626669224;223.21136800000002;224.452548;424.900072;568.335392;623.9641200000001;498.218036;374.890676;314.353352;307.120896;171.505;181.9425;333.2049999999999;439.22;473.29499999999996;376.8125;285.0725;241.145;227.04000000000002;168.98000000000002;177.25;326.94;432.36;467.82000000000005;372.69;281.61;237.78000000000003;225.72000000000003;37.670483906678;49.59807482;72.863313017584;84.200923880621;78.16241459275201;61.125781158809005;49.109160440621;42.088371442433;28.034757580017;5336.131905433478;4509.845254493801;9432.792615526585;13114.358856790823;15149.225151368353;12196.781753979609;9059.03464341122;7378.375037127633;7939.753089355017;1.1875;1.1935483870967742;0.5333333333333333;0.30864197530864196;1.875;2.2903225806451615;2.1;1.654320987654321;1.5798611111111112;1.940860215053763;1.5694444444444442;1.5257201646090535;11.9375;14.709677419354838;9.666666666666666;7.172839506172839;45.781081812500005;50.47525887096774;31.175653766666663;21.18877402469135;153.71910609293008;204.3825056740444;143.89256474976358;115.2836410221535;6.975355250000001;7.240404774193548;7.081667866666667;7.016486320987654;5.35953125;5.8691129032258065;5.553416666666665;5.422469135802469;5.280625000000001;5.717741935483871;5.449;5.337777777777778;1.1772026220836875;1.5999378974193548;1.2143885502930667;1.0395175787730988;166.7541220447962;145.4788791772194;157.21321025877643;161.90566489865213;0.045071437387046324;-0.006928364651110441;-0.0062873323671405554;-0.015508354709855182;-0.001886367932226882;0.003945782172966915;0.01011035196660015;-0.017150312789339893;0.001500473170853561;27.875;6.30859375;-13.140625;-10.12109375;2.2265625;2.65625;-7.6640625;-7.38671875;7.48828125;10.0;1.9375;-5.25;-1.9375;1.625;-1.0;-4.125;-0.1875;2.8125;3.8333333333333335;-1.7100694444444438;0.5208333333333339;-1.026041666666666;-0.399305555555556;-7.216449660063518e-16;1.71875;-1.2552083333333328;-0.5468750000000004;171.875;-11.81640625;-25.390625;-70.99609375;-5.2734375;19.53125;22.4609375;-74.51171875;16.11328125;832.3288118749999;-57.222605816406116;-122.95766539062485;-343.8085489960936;-25.537361273437526;94.58281953124992;108.77024246093744;-360.8334565117187;78.03082611328112;1547.7509673946556;-106.40787900838225;-228.64502927421026;-639.3266780090423;-47.48781377233621;175.88079174939259;202.26291051180164;-670.9852205239331;145.10165319324875;0.1630474999999998;-0.011209515625000695;-0.024086562500000536;-0.06734973437500025;-0.005002593749999713;0.01852812500000029;0.021307343750000107;-0.07068479687499998;0.015285703125000535;0.8421874999999983;-0.05790039062500069;-0.12441406250000038;-0.3478808593749997;-0.025839843749999633;0.09570312500000015;0.11005859374999992;-0.36510742187499934;0.07895507812500047;0.6187499999999992;-0.042539062500000294;-0.09140625000000019;-0.2555859374999998;-0.01898437499999986;0.07031250000000006;0.08085937499999996;-0.26824218749999973;0.0580078125000002;6.919166958336874;-0.47569272838566307;-1.022149664299768;-2.8580877151766537;-0.21229262258533454;0.7862689725382828;0.904209318419024;-2.9996161302335427;0.6486719023440846;37.58502473308684;-2.5839704503997742;-5.5523331992060525;-15.525177830087596;-1.153176895219687;4.2710255378508;4.911679368528404;-16.29396242690072;3.5235960687269317;0.0014084824183451976;-0.00022349563390678843;-0.00010478887278567593;-0.00019146116925747138;0.87109375;0.20350302419354838;-0.21901041666666668;-0.12495177469135803;0.3125;0.0625;-0.0875;-0.023919753086419752;0.11979166666666667;-0.0551635304659498;0.008680555555555565;-0.01266718106995884;5.37109375;-0.3811743951612903;-0.4231770833333333;-0.8764949845679012;26.010275371093748;-1.845890510206649;-2.049294423177081;-4.244549987606094;48.36721773108299;-3.432512226076847;-3.8107504879035043;-7.892921950728917;0.005095234374999993;-0.0003615972782258289;-0.0004014427083333423;-0.0008314782021604969;0.026318359374999947;-0.001867754536290345;-0.0020735677083333396;-0.0042948254243827125;0.019335937499999976;-0.0013722278225806546;-0.001523437500000003;-0.003155381944444442;0.2162239674480273;-0.015344926722118164;-0.017035827738329467;-0.03528503352069943;1.1745320229089637;-0.08335388549676691;-0.09253888665343421;-0.19166886209984688;-0.15867832710994695;-0.07439842444663997;-0.13593436933519973;0.23361782149573265;-0.2514200298953662;-0.1434423960582406;-0.4604955586722766;0.0724637681159421;-0.10574342458400422;-0.07096774193548387;-0.07878787878787878;-0.1631874298540965;-0.07096774193548372;-0.07878787878787871;-0.16318742985409646;-0.07096774193548366;-0.07878787878787871;-0.16318742985409648;-0.07096774193548837;-0.07878787878788064;-0.16318742985409732;-0.07096774193548486;-0.07878787878787918;-0.1631874298540967;-0.07096774193548444;-0.07878787878787905;-0.1631874298540966;-0.07096774193548432;-0.07878787878787899;-0.16318742985409662;-0.07096774193548536;-0.07878787878787939;-0.16318742985409676;1.6875830895024473;1.1778890053377717;1.2034464295775806;1.399103139013453;1.909118086696562;1.1807562420417428;2.0724637681159424;0.7862318840579708;1.1148684916800857;1.6;1.2775757575757576;1.2246913580246914;1.6000000000000003;1.277575757575758;1.2246913580246916;1.6000000000000005;1.2775757575757578;1.2246913580246916;1.6;1.2775757575757576;1.2246913580246916;1.6;1.2775757575757574;1.2246913580246912;1.6000000000000003;1.2775757575757576;1.2246913580246916;1.6;1.2775757575757578;1.2246913580246914;1.5999999999999999;1.2775757575757571;1.2246913580246912;0.21178197491163145;-0.2115998155458612;3.02629404171017;0.9871401833337383;3.02629404171017;0.9871401833337383;2.0373362092229392;1.232263074595492;6.215010439928557;5.792270925109657;12.226010439928563;11.803270925109667;20.794536716044103;20.37179720122521;2.9610104399285646;2.5382709251096527;2.765010439928569;2.342270925109656;2.715010439928569;2.2922709251096554;1.8850104399285657;1.4622709251096564;11.475310439928574;11.052570925109674;3.0332963258558214;60.42848963464057;30.214244817320292;47.2747783003573;60.428489634640584;6.042848963464058;30.214244817320566;3.115102965268572;0.3115102965268572;1.136262206353981;31.17910935626962;3.117910935626962;3.4397482986376144;60.42848963464057;30.214244817320292;47.2747783003573;60.428489634640584;6.042848963464058;30.214244817320566;3.115102965268572;0.3115102965268572;1.136262206353981;31.17910935626962;3.117910935626962;3.4397482986376144;60.42848963464057;30.214244817320292;47.2747783003573;60.428489634640584;6.042848963464058;30.214244817320566;3.115102965268572;0.3115102965268572;1.136262206353981;31.17910935626962;3.117910935626962;3.4397482986376144;60.42848963464057;30.214244817320292;47.2747783003573;60.428489634640584;6.042848963464058;30.214244817320566;3.115102965268572;0.3115102965268572;1.136262206353981;31.17910935626962;3.117910935626962;3.4397482986376144;60.42848963464057;30.214244817320292;47.2747783003573;60.428489634640584;6.042848963464058;30.214244817320566;3.115102965268572;0.3115102965268572;1.136262206353981;31.17910935626962;3.117910935626962;3.4397482986376144;60.42848963464057;30.214244817320292;47.2747783003573;60.428489634640584;6.042848963464058;30.214244817320566;3.115102965268572;0.3115102965268572;1.136262206353981;31.17910935626962;3.117910935626962;3.4397482986376144;60.42848963464057;30.214244817320292;47.2747783003573;60.428489634640584;6.042848963464058;30.214244817320566;3.115102965268572;0.3115102965268572;1.136262206353981;31.17910935626962;3.117910935626962;3.4397482986376144;60.42848963464057;30.214244817320292;47.2747783003573;60.428489634640584;6.042848963464058;30.214244817320566;3.115102965268572;0.3115102965268572;1.136262206353981;31.17910935626962;3.117910935626962;3.4397482986376144;64.43856189774723;31.0;9.0;31.0;31.0;0.11778744374793824;0.05421046643136155;4.0;4.0;2.0;0.0;0.6969234250586759;0.0;0.0;0.0;0.6969234250586759;0.0;0.0;0.0;0.7814744144215573;0.5525858577612694;0.34552203082849764;0.7814744144215573;0.5525858577612694;0.34552203082849764;7.983127663125442;4.663902460147014;3.8381705158866537;2.1753212645389093;1.0786852784228904;0.5812242912240135;0.4857022603955159;0.16666666666666666;0.7983127663125442;0.5182113844607793;7.983127663125442;4.663902460147014;3.8381705158866537;2.1753212645389093;1.0786852784228904;0.5812242912240135;0.4857022603955159;0.16666666666666666;0.7983127663125442;0.5182113844607793;13.666666666666668;11.846307551411208;15.96010584164462;30.766205389657685;28.98039215686275;29.360000000000003;18.784099401197608;36.568186105165935;0.42708333333333337;0.37019711098160024;0.49875330755139435;0.9614439184268027;0.9056372549019609;0.9175000000000001;0.5870031062874252;1.1427558157864355;60.42848963464057;30.214244817320292;47.2747783003573;60.428489634640584;6.042848963464058;30.214244817320566;3.115102965268572;0.3115102965268572;1.136262206353981;31.17910935626962;3.117910935626962;3.4397482986376144;4.0;4.0;2.0;0.0;9.229754346182919;5.600980725623582;1.8359315948601658;0.0;2.3475462962962963;2.2778184051398336;98.0;5.0;0.4;0.2;0.0;4.5;0.45;4.5;0.45;11.925910230808569;1.192591023080857;4.663902460147014;0.4663902460147014;11.925910230808569;1.192591023080857;4.663902460147014;0.4663902460147014;0.2503111022260809;0.025031110222608087;0.2503111022260809;0.025031110222608087;0.425;0.7;0.425;0.425;0.7;-4.5;-0.45;0.7142857142857143;0.00028571428571433355;9.0;0.8960382325345574;1.3716407621868583;2.5695488277869583;3.3973683589017414;3.9056390622295662;3.9056390622295662;28.673223441105836;43.892504389979464;82.22556248918266;108.71578748485572;124.98044999134612;124.98044999134612;0.17920764650691148;0.27432815243737163;0.5139097655573917;0.6794736717803482;0.7811278124459132;0.7811278124459132;0.1808644987797396;0.2768644349661926;0.5186610838169029;0.6857557000272441;0.788349677230407;0.788349677230407;4.103961767465442;3.6283592378131417;2.4304511722130417;1.6026316410982586;1.0943609377704338;1.0943609377704338;6.673151904630568;12.385613888284354;16.771979368837233;19.92904730577295;20.4413841747274;20.4413841747274;39.639944988972836;29.17609676811088;25.443044526787848;19.405356636771323;17.45037578003305;17.45037578003305;10.0;1.0;0.0;-3.119502638111995;151.76000000000002;66.02373005739902;53.378235290466534;11.835812092322787;11.835812092322787;53.378235290466534;11.835812092322787;53.378235290466534;0.0;11.835812092322787;25.683286491704038;0.0;27.694948798762496;0.0;1.8359315948601658;5.600980725623582;9.229754346182919;1.2804902574870265;18.490177750481447;1.8490177750481447;18.490177750481447;1.8490177750481447;10.0;8.0;6.0;5.0;5.0;2.0;0.0;0.0;0.0;55.0;2.302585092994046;2.3978952727983707;2.1972245773362196;1.9459101490553132;1.791759469228055;1.791759469228055;1.0986122886681098;0.0;0.0;0.0;4.02535169073515;31.369446;22.070553999999998;5.0;0.5555555555555556;3.858800000000003;48.14400000000003;2.5;0.8888888888888893;0.375;0.16000000000000003;0.2222222222222222;0.0816326530612245;0.0;0.0;0.0;0.0;0.2777777777777778;0.08888888888888893;0.046875;0.026666666666666672;0.04444444444444444;0.0163265306122449;0.0;0.0;0.0;0.0;0.5009793083900227;7.0;4.0;0.75;0.42857142857142855;181.5163111863147;4.169925001442312;9.0;3.6635616461296463;4.31748811353631;5.043425116919247;5.720311776607412;6.450470422144176;7.133295954896068;7.864419904994565;8.54927308487965;9.280332743796217;77.0225787639033;2.9444389791664403;4.07753744390572;5.351858133476067;6.678342114654332;8.029107054619736;37.081283725822296;142.172150704;4.4428797095;146.0;8.0;38.0;37.0;5.222222222222222;2.5000000000000004