boiling_point;SMILES;IUPAC_name;InChIKey;SpAbs_A;SpMax_A;SpDiam_A;SpAD_A;SpMAD_A;LogEE_A;VE1_A;VE2_A;VE3_A;VR1_A;VR2_A;VR3_A;nAtom;nHeavyAtom;nH;nC;ATS0dv;ATS1dv;ATS2dv;ATS3dv;ATS4dv;ATS5dv;ATS6dv;ATS7dv;ATS8dv;ATS0d;ATS1d;ATS2d;ATS3d;ATS4d;ATS5d;ATS6d;ATS7d;ATS8d;ATS0s;ATS1s;ATS2s;ATS3s;ATS4s;ATS5s;ATS6s;ATS7s;ATS8s;ATS0Z;ATS1Z;ATS2Z;ATS3Z;ATS4Z;ATS5Z;ATS6Z;ATS7Z;ATS8Z;ATS0m;ATS1m;ATS2m;ATS3m;ATS4m;ATS5m;ATS6m;ATS7m;ATS8m;ATS0v;ATS1v;ATS2v;ATS3v;ATS4v;ATS5v;ATS6v;ATS7v;ATS8v;ATS0se;ATS1se;ATS2se;ATS3se;ATS4se;ATS5se;ATS6se;ATS7se;ATS8se;ATS0pe;ATS1pe;ATS2pe;ATS3pe;ATS4pe;ATS5pe;ATS6pe;ATS7pe;ATS8pe;ATS0are;ATS1are;ATS2are;ATS3are;ATS4are;ATS5are;ATS6are;ATS7are;ATS8are;ATS0p;ATS1p;ATS2p;ATS3p;ATS4p;ATS5p;ATS6p;ATS7p;ATS8p;ATS0i;ATS1i;ATS2i;ATS3i;ATS4i;ATS5i;ATS6i;ATS7i;ATS8i;AATS0dv;AATS1dv;AATS2dv;AATS3dv;AATS0d;AATS1d;AATS2d;AATS3d;AATS0s;AATS1s;AATS2s;AATS3s;AATS0Z;AATS1Z;AATS2Z;AATS3Z;AATS0m;AATS1m;AATS2m;AATS3m;AATS0v;AATS1v;AATS2v;AATS3v;AATS0se;AATS1se;AATS2se;AATS3se;AATS0pe;AATS1pe;AATS2pe;AATS3pe;AATS0are;AATS1are;AATS2are;AATS3are;AATS0p;AATS1p;AATS2p;AATS3p;AATS0i;AATS1i;AATS2i;AATS3i;ATSC0c;ATSC1c;ATSC2c;ATSC3c;ATSC4c;ATSC5c;ATSC6c;ATSC7c;ATSC8c;ATSC0dv;ATSC1dv;ATSC2dv;ATSC3dv;ATSC4dv;ATSC5dv;ATSC6dv;ATSC7dv;ATSC8dv;ATSC0d;ATSC1d;ATSC2d;ATSC3d;ATSC4d;ATSC5d;ATSC6d;ATSC7d;ATSC8d;ATSC0s;ATSC1s;ATSC2s;ATSC3s;ATSC4s;ATSC5s;ATSC6s;ATSC7s;ATSC8s;ATSC0Z;ATSC1Z;ATSC2Z;ATSC3Z;ATSC4Z;ATSC5Z;ATSC6Z;ATSC7Z;ATSC8Z;ATSC0m;ATSC1m;ATSC2m;ATSC3m;ATSC4m;ATSC5m;ATSC6m;ATSC7m;ATSC8m;ATSC0v;ATSC1v;ATSC2v;ATSC3v;ATSC4v;ATSC5v;ATSC6v;ATSC7v;ATSC8v;ATSC0se;ATSC1se;ATSC2se;ATSC3se;ATSC4se;ATSC5se;ATSC6se;ATSC7se;ATSC8se;ATSC0pe;ATSC1pe;ATSC2pe;ATSC3pe;ATSC4pe;ATSC5pe;ATSC6pe;ATSC7pe;ATSC8pe;ATSC0are;ATSC1are;ATSC2are;ATSC3are;ATSC4are;ATSC5are;ATSC6are;ATSC7are;ATSC8are;ATSC0p;ATSC1p;ATSC2p;ATSC3p;ATSC4p;ATSC5p;ATSC6p;ATSC7p;ATSC8p;ATSC0i;ATSC1i;ATSC2i;ATSC3i;ATSC4i;ATSC5i;ATSC6i;ATSC7i;ATSC8i;AATSC0c;AATSC1c;AATSC2c;AATSC3c;AATSC0dv;AATSC1dv;AATSC2dv;AATSC3dv;AATSC0d;AATSC1d;AATSC2d;AATSC3d;AATSC0s;AATSC1s;AATSC2s;AATSC3s;AATSC0Z;AATSC1Z;AATSC2Z;AATSC3Z;AATSC0m;AATSC1m;AATSC2m;AATSC3m;AATSC0v;AATSC1v;AATSC2v;AATSC3v;AATSC0se;AATSC1se;AATSC2se;AATSC3se;AATSC0pe;AATSC1pe;AATSC2pe;AATSC3pe;AATSC0are;AATSC1are;AATSC2are;AATSC3are;AATSC0p;AATSC1p;AATSC2p;AATSC3p;AATSC0i;AATSC1i;AATSC2i;AATSC3i;MATS1c;MATS2c;MATS3c;MATS1dv;MATS2dv;MATS3dv;MATS1s;MATS2s;MATS3s;MATS1Z;MATS2Z;MATS3Z;MATS1m;MATS2m;MATS3m;MATS1v;MATS2v;MATS3v;MATS1se;MATS2se;MATS3se;MATS1pe;MATS2pe;MATS3pe;MATS1are;MATS2are;MATS3are;MATS1p;MATS2p;MATS3p;MATS1i;MATS2i;MATS3i;GATS1c;GATS2c;GATS3c;GATS1dv;GATS2dv;GATS3dv;GATS1s;GATS2s;GATS3s;GATS1Z;GATS2Z;GATS3Z;GATS1m;GATS2m;GATS3m;GATS1v;GATS2v;GATS3v;GATS1se;GATS2se;GATS3se;GATS1pe;GATS2pe;GATS3pe;GATS1are;GATS2are;GATS3are;GATS1p;GATS2p;GATS3p;GATS1i;GATS2i;GATS3i;BCUTc-1h;BCUTc-1l;BCUTdv-1h;BCUTdv-1l;BCUTd-1h;BCUTd-1l;BCUTs-1h;BCUTs-1l;BCUTZ-1h;BCUTZ-1l;BCUTm-1h;BCUTm-1l;BCUTv-1h;BCUTv-1l;BCUTse-1h;BCUTse-1l;BCUTpe-1h;BCUTpe-1l;BCUTare-1h;BCUTare-1l;BCUTp-1h;BCUTp-1l;BCUTi-1h;BCUTi-1l;BalabanJ;SpAbs_DzZ;SpMax_DzZ;SpDiam_DzZ;SpAD_DzZ;SpMAD_DzZ;LogEE_DzZ;VE1_DzZ;VE2_DzZ;VE3_DzZ;VR1_DzZ;VR2_DzZ;VR3_DzZ;SpAbs_Dzm;SpMax_Dzm;SpDiam_Dzm;SpAD_Dzm;SpMAD_Dzm;LogEE_Dzm;VE1_Dzm;VE2_Dzm;VE3_Dzm;VR1_Dzm;VR2_Dzm;VR3_Dzm;SpAbs_Dzv;SpMax_Dzv;SpDiam_Dzv;SpAD_Dzv;SpMAD_Dzv;LogEE_Dzv;VE1_Dzv;VE2_Dzv;VE3_Dzv;VR1_Dzv;VR2_Dzv;VR3_Dzv;SpAbs_Dzse;SpMax_Dzse;SpDiam_Dzse;SpAD_Dzse;SpMAD_Dzse;LogEE_Dzse;VE1_Dzse;VE2_Dzse;VE3_Dzse;VR1_Dzse;VR2_Dzse;VR3_Dzse;SpAbs_Dzpe;SpMax_Dzpe;SpDiam_Dzpe;SpAD_Dzpe;SpMAD_Dzpe;LogEE_Dzpe;VE1_Dzpe;VE2_Dzpe;VE3_Dzpe;VR1_Dzpe;VR2_Dzpe;VR3_Dzpe;SpAbs_Dzare;SpMax_Dzare;SpDiam_Dzare;SpAD_Dzare;SpMAD_Dzare;LogEE_Dzare;VE1_Dzare;VE2_Dzare;VE3_Dzare;VR1_Dzare;VR2_Dzare;VR3_Dzare;SpAbs_Dzp;SpMax_Dzp;SpDiam_Dzp;SpAD_Dzp;SpMAD_Dzp;LogEE_Dzp;VE1_Dzp;VE2_Dzp;VE3_Dzp;VR1_Dzp;VR2_Dzp;VR3_Dzp;SpAbs_Dzi;SpMax_Dzi;SpDiam_Dzi;SpAD_Dzi;SpMAD_Dzi;LogEE_Dzi;VE1_Dzi;VE2_Dzi;VE3_Dzi;VR1_Dzi;VR2_Dzi;VR3_Dzi;BertzCT;nBonds;nBondsO;nBondsS;nBondsKS;RNCG;RPCG;C1SP3;C2SP3;C3SP3;C4SP3;Xc-3d;Xc-4d;Xc-5d;Xc-6d;Xc-3dv;Xc-4dv;Xc-5dv;Xc-6dv;Xpc-4d;Xpc-5d;Xpc-6d;Xpc-4dv;Xpc-5dv;Xpc-6dv;Xp-0d;Xp-1d;Xp-2d;Xp-3d;Xp-4d;Xp-5d;Xp-6d;Xp-7d;AXp-0d;AXp-1d;Xp-0dv;Xp-1dv;Xp-2dv;Xp-3dv;Xp-4dv;Xp-5dv;Xp-6dv;Xp-7dv;AXp-0dv;AXp-1dv;SZ;Sm;Sv;Sse;Spe;Sare;Sp;Si;MZ;Mm;Mv;Mse;Mpe;Mare;Mp;Mi;SpAbs_D;SpMax_D;SpDiam_D;SpAD_D;SpMAD_D;LogEE_D;VE1_D;VE2_D;VE3_D;VR1_D;VR2_D;VR3_D;NsCH3;NssCH2;NsssCH;NssssC;SsCH3;SssCH2;SsssCH;SssssC;MAXsCH3;MINsCH3;ECIndex;ETA_alpha;ETA_shape_p;ETA_shape_y;ETA_shape_x;ETA_beta;AETA_beta;ETA_beta_s;AETA_beta_s;ETA_eta;AETA_eta;ETA_eta_L;AETA_eta_L;ETA_eta_R;AETA_eta_R;ETA_eta_RL;AETA_eta_RL;ETA_eta_B;AETA_eta_B;ETA_eta_BR;AETA_eta_BR;ETA_epsilon_1;ETA_epsilon_2;ETA_epsilon_3;ETA_epsilon_4;ETA_epsilon_5;ETA_dBeta;AETA_dBeta;ETA_psi_1;ETA_dPsi_B;fragCpx;IC0;IC1;IC2;IC3;IC4;IC5;TIC0;TIC1;TIC2;TIC3;TIC4;TIC5;SIC0;SIC1;SIC2;SIC3;SIC4;SIC5;BIC0;BIC1;BIC2;BIC3;BIC4;BIC5;CIC0;CIC1;CIC2;CIC3;CIC4;CIC5;MIC0;MIC1;MIC2;MIC3;MIC4;MIC5;ZMIC0;ZMIC1;ZMIC2;ZMIC3;ZMIC4;ZMIC5;Kier1;Lipinski;GhoseFilter;FilterItLogS;VMcGowan;LabuteASA;PEOE_VSA6;PEOE_VSA7;SMR_VSA4;SMR_VSA5;SlogP_VSA4;SlogP_VSA5;EState_VSA3;EState_VSA4;EState_VSA5;EState_VSA7;EState_VSA8;VSA_EState4;VSA_EState5;VSA_EState7;VSA_EState8;MDEC-11;MID;AMID;MID_C;AMID_C;MPC2;MPC3;MPC4;MPC5;MPC6;MPC7;MPC8;MPC9;MPC10;TMPC10;piPC1;piPC2;piPC3;piPC4;piPC5;piPC6;piPC7;piPC8;piPC9;piPC10;TpiPC10;apol;bpol;nRot;RotRatio;SLogP;SMR;GGI1;GGI2;GGI3;GGI4;GGI5;GGI6;GGI7;GGI8;GGI9;GGI10;JGI1;JGI2;JGI3;JGI4;JGI5;JGI6;JGI7;JGI8;JGI9;JGI10;JGT10;Diameter;Radius;TopoShapeIndex;PetitjeanIndex;Vabc;VAdjMat;MWC01;MWC02;MWC03;MWC04;MWC05;MWC06;MWC07;MWC08;MWC09;MWC10;TMWC10;SRW02;SRW04;SRW06;SRW08;SRW10;TSRW10;MW;AMW;WPath;WPol;Zagreb1;Zagreb2;mZagreb1;mZagreb2
162.0;CCCCC(C)C(C)CC;3,4-dimethyloctane;QQCWGAMGBCGAQJ-UHFFFAOYSA-N;11.84281742608095;2.1191657828874617;4.238331565774924;11.84281742608095;1.184281742608095;3.124511609532267;2.81276801652546;0.281276801652546;1.0341690577548888;35.61628911313575;3.561628911313575;3.5728030925673684;32.0;10.0;22.0;10.0;38.0;39.0;37.0;29.0;20.0;12.0;5.0;1.0;0.0;60.0;73.0;127.0;146.0;135.0;121.0;81.0;51.0;27.0;50.55555555555556;60.27777777777778;93.25;121.91666666666666;135.25;121.58333333333331;87.0;61.0;33.0;382.0;456.0;580.0;631.0;565.0;425.0;288.0;160.0;57.0;1464.9946180000002;1564.733025;1870.5392259999999;1958.4227139999998;1604.3692629999996;1162.5988129999996;759.9407789999998;366.42732099999995;93.97987199999999;4919.011394973762;6335.857675895377;8633.553884985813;9788.22974967288;9392.601209233584;7436.594687442548;5143.244297653925;3129.6476077436755;1341.1783312726473;223.21136800000002;224.452548;424.90007199999997;568.382824;628.7778519999999;621.545396;435.30942;309.53962;183.79353600000002;171.505;181.9425;333.20500000000004;439.46500000000003;482.6575;468.55249999999995;328.38750000000005;231.78250000000003;135.3;168.98000000000002;177.25;326.94000000000005;432.53999999999996;475.83;463.77;324.99;229.77000000000004;134.64000000000001;37.670483906678;49.59807482;72.863313017584;86.21377245031901;87.19601573941301;73.14240187699701;51.097828014564;33.054770295772;16.018136861829;5336.131905433478;4509.8452544938;9432.792615526585;13125.292682167721;14773.150812320615;15334.528864547998;10712.359686252563;7754.449376175372;4802.0059787866285;1.1875;1.2580645161290323;0.6166666666666667;0.35802469135802467;1.875;2.3548387096774195;2.1166666666666667;1.8024691358024691;1.5798611111111112;1.9444444444444444;1.5541666666666667;1.5051440329218106;11.9375;14.709677419354838;9.666666666666666;7.790123456790123;45.781081812500005;50.47525887096774;31.175653766666663;24.178058197530863;153.71910609293008;204.3825056740444;143.89256474976355;120.84234258855408;6.975355250000001;7.240404774193548;7.081667866666666;7.017071901234568;5.35953125;5.8691129032258065;5.553416666666667;5.425493827160494;5.280625000000001;5.717741935483871;5.449000000000001;5.34;1.1772026220836875;1.5999378974193548;1.2143885502930667;1.0643675611150496;166.7541220447962;145.47887917721934;157.21321025877643;162.04065039713237;0.045118249705795116;-0.007501099010175158;-0.009051975715182483;-0.00034341867798696156;-0.016448090442472793;0.0050605917272271445;-0.00020523170325736743;-0.0019938131740548032;0.0031461730086396766;27.875;8.30859375;-8.140625;-12.87109375;-8.8984375;-0.0234375;-2.06640625;1.73828125;5.16796875;10.0;3.9375;-4.25;-4.9375;-1.875;-0.875;-0.5625;1.3125;1.6875;3.833333333333334;-1.5989583333333326;-0.39583333333333304;0.932291666666667;-1.5937499999999996;0.4479166666666661;0.15104166666666644;-0.1718750000000003;-0.07812500000000042;171.875;-11.81640625;-25.390625;-20.99609375;-74.0234375;16.6015625;-5.56640625;-5.76171875;19.04296875;832.3288118749999;-57.222605816406116;-122.95766539062487;-101.67653099609365;-358.46888602343734;80.39539660156241;-26.95610356640631;-27.90193176171882;92.21824904296864;1547.7509673946556;-106.40787900838225;-228.64502927421023;-189.071851130597;-666.5882007301982;149.4986729869836;-50.12602564857709;-51.88483356607101;171.48377195565774;0.1630474999999998;-0.011209515625000697;-0.024086562500000533;-0.019917734375000298;-0.07022159375000006;0.015748906250000468;-0.005280515624999676;-0.005465796874999648;0.01806492187500035;0.8421874999999983;-0.057900390625000686;-0.1244140625000004;-0.10288085937500017;-0.3627148437499994;0.08134765625000037;-0.02727539062499959;-0.028232421874999553;0.09331054687500023;0.6187499999999992;-0.042539062500000294;-0.09140625000000016;-0.07558593750000007;-0.2664843749999997;0.059765625000000155;-0.020039062499999823;-0.020742187499999815;0.0685546875000001;6.919166958336874;-0.475692728385663;-1.0221496642997678;-0.8452391454786536;-2.9799594059200865;0.6683286266575412;-0.2240866571734088;-0.23194934689879138;0.7666122482248259;37.58502473308684;-2.5839704503997742;-5.552333199206053;-4.591352453189611;-16.187186788454454;3.6303717071731962;-1.2172422782874466;-1.2599525336659534;4.164249899404535;0.0014099453033060974;-0.00024197093581210187;-0.00015086626191970805;-4.239736765271131e-06;0.87109375;0.26801915322580644;-0.13567708333333334;-0.15890239197530864;0.3125;0.12701612903225806;-0.07083333333333333;-0.06095679012345679;0.11979166666666669;-0.05157930107526879;-0.006597222222222217;0.011509773662551443;5.37109375;-0.3811743951612903;-0.4231770833333333;-0.2592110339506173;26.010275371093748;-1.845890510206649;-2.049294423177081;-1.2552658147665883;48.36721773108299;-3.432512226076847;-3.810750487903504;-2.3342203843283578;0.005095234374999993;-0.00036159727822582895;-0.00040144270833334224;-0.00024589795524691723;0.026318359374999947;-0.0018677545362903447;-0.00207356770833334;-0.001270134066358027;0.019335937499999976;-0.0013722278225806546;-0.0015234375000000027;-0.0009331597222222231;0.2162239674480273;-0.015344926722118162;-0.017035827738329463;-0.01043505117874881;1.1745320229089637;-0.08335388549676691;-0.09253888665343422;-0.056683363619624824;-0.17161725014773163;-0.10700149967942067;-0.0030070221556322946;0.30768118038478226;-0.15575485799701047;-0.1824170957205337;-0.43057503506311334;-0.05507246376811589;0.09608158883521203;-0.07096774193548387;-0.07878787878787878;-0.04826038159371493;-0.07096774193548372;-0.07878787878787871;-0.04826038159371488;-0.07096774193548366;-0.0787878787878787;-0.04826038159371489;-0.07096774193548838;-0.07878787878788064;-0.04826038159371571;-0.07096774193548486;-0.0787878787878792;-0.04826038159371511;-0.07096774193548444;-0.07878787878787902;-0.048260381593715033;-0.07096774193548432;-0.07878787878787898;-0.048260381593715006;-0.07096774193548536;-0.07878787878787939;-0.04826038159371519;1.7019923629080058;1.1944795584740986;1.0207465363468413;1.3273542600896862;1.81644245142003;1.4965398881691856;2.043478260869565;0.9097826086956521;0.8070316693505097;1.6;1.2775757575757576;1.1133557800224467;1.6000000000000003;1.277575757575758;1.113355780022447;1.6000000000000005;1.2775757575757578;1.113355780022447;1.6;1.2775757575757576;1.113355780022447;1.6000000000000003;1.2775757575757576;1.1133557800224467;1.6000000000000003;1.2775757575757576;1.113355780022447;1.6;1.2775757575757578;1.113355780022447;1.5999999999999999;1.2775757575757574;1.1133557800224467;0.21903799624837084;-0.22234687193251013;3.1151026664002432;0.987143370230731;3.1151026664002432;0.987143370230731;2.029494009594942;1.184832722122621;6.223355779101509;5.782713699103809;12.234355779101532;11.7937136991038;20.80288205521707;20.362239975219325;2.9693557791015075;2.5287136991037977;2.773355779101513;2.332713699103801;2.72335577910151;2.282713699103802;1.8933557791015079;1.4527136991038017;11.483655779101511;11.043013699103799;3.3088402550227194;57.08674834219023;28.54337417109512;42.91268009634494;57.08674834219023;5.708674834219023;28.54337417109658;3.1069645277283096;0.310696452772831;1.13364621345752;31.822324937087515;3.1822324937087516;3.460168085516667;57.08674834219023;28.54337417109512;42.91268009634494;57.08674834219023;5.708674834219023;28.54337417109658;3.1069645277283096;0.310696452772831;1.13364621345752;31.822324937087515;3.1822324937087516;3.460168085516667;57.08674834219023;28.54337417109512;42.91268009634494;57.08674834219023;5.708674834219023;28.54337417109658;3.1069645277283096;0.310696452772831;1.13364621345752;31.822324937087515;3.1822324937087516;3.460168085516667;57.08674834219023;28.54337417109512;42.91268009634494;57.08674834219023;5.708674834219023;28.54337417109658;3.1069645277283096;0.310696452772831;1.13364621345752;31.822324937087515;3.1822324937087516;3.460168085516667;57.08674834219023;28.54337417109512;42.91268009634494;57.08674834219023;5.708674834219023;28.54337417109658;3.1069645277283096;0.310696452772831;1.13364621345752;31.822324937087515;3.1822324937087516;3.460168085516667;57.08674834219023;28.54337417109512;42.91268009634494;57.08674834219023;5.708674834219023;28.54337417109658;3.1069645277283096;0.310696452772831;1.13364621345752;31.822324937087515;3.1822324937087516;3.460168085516667;57.08674834219023;28.54337417109512;42.91268009634494;57.08674834219023;5.708674834219023;28.54337417109658;3.1069645277283096;0.310696452772831;1.13364621345752;31.822324937087515;3.1822324937087516;3.460168085516667;57.08674834219023;28.54337417109512;42.91268009634494;57.08674834219023;5.708674834219023;28.54337417109658;3.1069645277283096;0.310696452772831;1.13364621345752;31.822324937087515;3.1822324937087516;3.460168085516667;66.43856189774725;31.0;9.0;31.0;31.0;0.11845787298010953;0.05482191108773167;4.0;4.0;2.0;0.0;0.4714045207910317;0.0;0.16666666666666666;0.0;0.4714045207910317;0.0;0.16666666666666666;0.0;1.2071067811865477;1.0892556509887894;0.922588984322123;1.2071067811865477;1.0892556509887894;0.922588984322123;7.983127663125442;4.718744015013407;3.5050445840373743;2.6283744087370953;1.212986144588228;0.6410108691585386;0.2845177968644246;0.08333333333333333;0.7983127663125442;0.5243048905570452;7.983127663125442;4.718744015013407;3.5050445840373743;2.6283744087370953;1.212986144588228;0.6410108691585386;0.2845177968644246;0.08333333333333333;0.7983127663125442;0.5243048905570452;13.666666666666668;11.846307551411208;15.96010584164462;30.766205389657685;28.98039215686275;29.360000000000003;18.784099401197608;36.568186105165935;0.42708333333333337;0.37019711098160024;0.49875330755139435;0.9614439184268027;0.9056372549019609;0.9175000000000001;0.5870031062874252;1.1427558157864355;57.08674834219023;28.54337417109512;42.91268009634494;57.08674834219023;5.708674834219023;28.54337417109658;3.1069645277283096;0.310696452772831;1.13364621345752;31.822324937087515;3.1822324937087516;3.460168085516667;4.0;4.0;2.0;0.0;9.292260015117158;5.516536281179138;1.85787037037037;0.0;2.3787962962962963;2.2671948223733938;94.0;5.0;0.4;0.2;0.0;4.5;0.45;4.5;0.45;12.143828579929792;1.2143828579929792;4.718744015013406;0.4718744015013406;12.143828579929792;1.2143828579929792;4.718744015013406;0.4718744015013406;0.19546954735968924;0.019546954735968923;0.19546954735968924;0.019546954735968923;0.425;0.7;0.425;0.425;0.7;-4.5;-0.45;0.7142857142857143;0.00028571428571433355;9.0;0.8960382325345574;1.3716407621868583;2.5931390622295662;3.4681390622295662;3.8431390622295662;4.155639062229566;28.673223441105836;43.892504389979464;82.98044999134612;110.98044999134612;122.98044999134612;132.98044999134612;0.17920764650691148;0.27432815243737163;0.5186278124459133;0.6936278124459132;0.7686278124459133;0.8311278124459133;0.1808644987797396;0.2768644349661926;0.523422751091401;0.7000407018507383;0.7757341093190258;0.838811948875932;4.103961767465442;3.6283592378131417;2.4068609377704338;1.5318609377704338;1.1568609377704338;0.8443609377704338;6.673151904630568;12.385613888284354;17.055321674727402;19.312696674727402;21.066071674727397;21.381071674727398;39.639944988972836;29.17609676811088;24.7426687467548;20.0588343733774;16.82537578003305;15.5294171866887;10.0;1.0;0.0;-3.119502638111995;151.76000000000002;66.02373005739902;53.378235290466534;11.835812092322787;11.835812092322787;53.378235290466534;11.835812092322787;53.378235290466534;0.0;11.835812092322787;25.683286491704038;0.0;27.694948798762496;0.0;1.85787037037037;5.516536281179138;9.292260015117158;1.354350121791732;18.481377919265146;1.8481377919265145;18.481377919265146;1.8481377919265145;10.0;10.0;7.0;5.0;3.0;1.0;0.0;0.0;0.0;55.0;2.302585092994046;2.3978952727983707;2.3978952727983707;2.0794415416798357;1.791759469228055;1.3862943611198906;0.6931471805599453;0.0;0.0;0.0;4.02535169073515;31.369446;22.070553999999998;5.0;0.5555555555555556;3.858800000000003;48.14400000000003;2.0;1.333333333333334;0.5;0.24000000000000005;0.1111111111111111;0.04081632653061225;0.0;0.0;0.0;0.0;0.2222222222222222;0.13333333333333341;0.05;0.03428571428571429;0.02222222222222222;0.01360544217687075;0.0;0.0;0.0;0.0;0.4756689342403629;7.0;4.0;0.75;0.42857142857142855;181.5163111863147;4.169925001442312;9.0;3.6635616461296463;4.3694478524670215;5.10594547390058;5.84354441703136;6.588926477533519;7.334981878871814;8.083637203141548;8.832441791585824;9.582386570538903;78.40487331120022;2.9444389791664403;4.07753744390572;5.407171771460119;6.818924065275521;8.271036865792954;37.51910912560076;142.172150704;4.4428797095;137.0;10.0;38.0;39.0;5.222222222222222;2.611111111111111