boiling_point;SMILES;IUPAC_name;InChIKey;SpAbs_A;SpMax_A;SpDiam_A;SpAD_A;SpMAD_A;LogEE_A;VE1_A;VE2_A;VE3_A;VR1_A;VR2_A;VR3_A;nAtom;nHeavyAtom;nH;nC;ATS0dv;ATS1dv;ATS2dv;ATS3dv;ATS4dv;ATS5dv;ATS6dv;ATS7dv;ATS8dv;ATS0d;ATS1d;ATS2d;ATS3d;ATS4d;ATS5d;ATS6d;ATS7d;ATS8d;ATS0s;ATS1s;ATS2s;ATS3s;ATS4s;ATS5s;ATS6s;ATS7s;ATS8s;ATS0Z;ATS1Z;ATS2Z;ATS3Z;ATS4Z;ATS5Z;ATS6Z;ATS7Z;ATS8Z;ATS0m;ATS1m;ATS2m;ATS3m;ATS4m;ATS5m;ATS6m;ATS7m;ATS8m;ATS0v;ATS1v;ATS2v;ATS3v;ATS4v;ATS5v;ATS6v;ATS7v;ATS8v;ATS0se;ATS1se;ATS2se;ATS3se;ATS4se;ATS5se;ATS6se;ATS7se;ATS8se;ATS0pe;ATS1pe;ATS2pe;ATS3pe;ATS4pe;ATS5pe;ATS6pe;ATS7pe;ATS8pe;ATS0are;ATS1are;ATS2are;ATS3are;ATS4are;ATS5are;ATS6are;ATS7are;ATS8are;ATS0p;ATS1p;ATS2p;ATS3p;ATS4p;ATS5p;ATS6p;ATS7p;ATS8p;ATS0i;ATS1i;ATS2i;ATS3i;ATS4i;ATS5i;ATS6i;ATS7i;ATS8i;AATS0dv;AATS1dv;AATS2dv;AATS3dv;AATS0d;AATS1d;AATS2d;AATS3d;AATS0s;AATS1s;AATS2s;AATS3s;AATS0Z;AATS1Z;AATS2Z;AATS3Z;AATS0m;AATS1m;AATS2m;AATS3m;AATS0v;AATS1v;AATS2v;AATS3v;AATS0se;AATS1se;AATS2se;AATS3se;AATS0pe;AATS1pe;AATS2pe;AATS3pe;AATS0are;AATS1are;AATS2are;AATS3are;AATS0p;AATS1p;AATS2p;AATS3p;AATS0i;AATS1i;AATS2i;AATS3i;ATSC0c;ATSC1c;ATSC2c;ATSC3c;ATSC4c;ATSC5c;ATSC6c;ATSC7c;ATSC8c;ATSC0dv;ATSC1dv;ATSC2dv;ATSC3dv;ATSC4dv;ATSC5dv;ATSC6dv;ATSC7dv;ATSC8dv;ATSC0d;ATSC1d;ATSC2d;ATSC3d;ATSC4d;ATSC5d;ATSC6d;ATSC7d;ATSC8d;ATSC0s;ATSC1s;ATSC2s;ATSC3s;ATSC4s;ATSC5s;ATSC6s;ATSC7s;ATSC8s;ATSC0Z;ATSC1Z;ATSC2Z;ATSC3Z;ATSC4Z;ATSC5Z;ATSC6Z;ATSC7Z;ATSC8Z;ATSC0m;ATSC1m;ATSC2m;ATSC3m;ATSC4m;ATSC5m;ATSC6m;ATSC7m;ATSC8m;ATSC0v;ATSC1v;ATSC2v;ATSC3v;ATSC4v;ATSC5v;ATSC6v;ATSC7v;ATSC8v;ATSC0se;ATSC1se;ATSC2se;ATSC3se;ATSC4se;ATSC5se;ATSC6se;ATSC7se;ATSC8se;ATSC0pe;ATSC1pe;ATSC2pe;ATSC3pe;ATSC4pe;ATSC5pe;ATSC6pe;ATSC7pe;ATSC8pe;ATSC0are;ATSC1are;ATSC2are;ATSC3are;ATSC4are;ATSC5are;ATSC6are;ATSC7are;ATSC8are;ATSC0p;ATSC1p;ATSC2p;ATSC3p;ATSC4p;ATSC5p;ATSC6p;ATSC7p;ATSC8p;ATSC0i;ATSC1i;ATSC2i;ATSC3i;ATSC4i;ATSC5i;ATSC6i;ATSC7i;ATSC8i;AATSC0c;AATSC1c;AATSC2c;AATSC3c;AATSC0dv;AATSC1dv;AATSC2dv;AATSC3dv;AATSC0d;AATSC1d;AATSC2d;AATSC3d;AATSC0s;AATSC1s;AATSC2s;AATSC3s;AATSC0Z;AATSC1Z;AATSC2Z;AATSC3Z;AATSC0m;AATSC1m;AATSC2m;AATSC3m;AATSC0v;AATSC1v;AATSC2v;AATSC3v;AATSC0se;AATSC1se;AATSC2se;AATSC3se;AATSC0pe;AATSC1pe;AATSC2pe;AATSC3pe;AATSC0are;AATSC1are;AATSC2are;AATSC3are;AATSC0p;AATSC1p;AATSC2p;AATSC3p;AATSC0i;AATSC1i;AATSC2i;AATSC3i;MATS1c;MATS2c;MATS3c;MATS1dv;MATS2dv;MATS3dv;MATS1s;MATS2s;MATS3s;MATS1Z;MATS2Z;MATS3Z;MATS1m;MATS2m;MATS3m;MATS1v;MATS2v;MATS3v;MATS1se;MATS2se;MATS3se;MATS1pe;MATS2pe;MATS3pe;MATS1are;MATS2are;MATS3are;MATS1p;MATS2p;MATS3p;MATS1i;MATS2i;MATS3i;GATS1c;GATS2c;GATS3c;GATS1dv;GATS2dv;GATS3dv;GATS1s;GATS2s;GATS3s;GATS1Z;GATS2Z;GATS3Z;GATS1m;GATS2m;GATS3m;GATS1v;GATS2v;GATS3v;GATS1se;GATS2se;GATS3se;GATS1pe;GATS2pe;GATS3pe;GATS1are;GATS2are;GATS3are;GATS1p;GATS2p;GATS3p;GATS1i;GATS2i;GATS3i;BCUTc-1h;BCUTc-1l;BCUTdv-1h;BCUTdv-1l;BCUTd-1h;BCUTd-1l;BCUTs-1h;BCUTs-1l;BCUTZ-1h;BCUTZ-1l;BCUTm-1h;BCUTm-1l;BCUTv-1h;BCUTv-1l;BCUTse-1h;BCUTse-1l;BCUTpe-1h;BCUTpe-1l;BCUTare-1h;BCUTare-1l;BCUTp-1h;BCUTp-1l;BCUTi-1h;BCUTi-1l;BalabanJ;SpAbs_DzZ;SpMax_DzZ;SpDiam_DzZ;SpAD_DzZ;SpMAD_DzZ;LogEE_DzZ;VE1_DzZ;VE2_DzZ;VE3_DzZ;VR1_DzZ;VR2_DzZ;VR3_DzZ;SpAbs_Dzm;SpMax_Dzm;SpDiam_Dzm;SpAD_Dzm;SpMAD_Dzm;LogEE_Dzm;VE1_Dzm;VE2_Dzm;VE3_Dzm;VR1_Dzm;VR2_Dzm;VR3_Dzm;SpAbs_Dzv;SpMax_Dzv;SpDiam_Dzv;SpAD_Dzv;SpMAD_Dzv;LogEE_Dzv;VE1_Dzv;VE2_Dzv;VE3_Dzv;VR1_Dzv;VR2_Dzv;VR3_Dzv;SpAbs_Dzse;SpMax_Dzse;SpDiam_Dzse;SpAD_Dzse;SpMAD_Dzse;LogEE_Dzse;VE1_Dzse;VE2_Dzse;VE3_Dzse;VR1_Dzse;VR2_Dzse;VR3_Dzse;SpAbs_Dzpe;SpMax_Dzpe;SpDiam_Dzpe;SpAD_Dzpe;SpMAD_Dzpe;LogEE_Dzpe;VE1_Dzpe;VE2_Dzpe;VE3_Dzpe;VR1_Dzpe;VR2_Dzpe;VR3_Dzpe;SpAbs_Dzare;SpMax_Dzare;SpDiam_Dzare;SpAD_Dzare;SpMAD_Dzare;LogEE_Dzare;VE1_Dzare;VE2_Dzare;VE3_Dzare;VR1_Dzare;VR2_Dzare;VR3_Dzare;SpAbs_Dzp;SpMax_Dzp;SpDiam_Dzp;SpAD_Dzp;SpMAD_Dzp;LogEE_Dzp;VE1_Dzp;VE2_Dzp;VE3_Dzp;VR1_Dzp;VR2_Dzp;VR3_Dzp;SpAbs_Dzi;SpMax_Dzi;SpDiam_Dzi;SpAD_Dzi;SpMAD_Dzi;LogEE_Dzi;VE1_Dzi;VE2_Dzi;VE3_Dzi;VR1_Dzi;VR2_Dzi;VR3_Dzi;BertzCT;nBonds;nBondsO;nBondsS;nBondsKS;RNCG;RPCG;C1SP3;C2SP3;C3SP3;C4SP3;Xc-3d;Xc-4d;Xc-5d;Xc-6d;Xc-3dv;Xc-4dv;Xc-5dv;Xc-6dv;Xpc-4d;Xpc-5d;Xpc-6d;Xpc-4dv;Xpc-5dv;Xpc-6dv;Xp-0d;Xp-1d;Xp-2d;Xp-3d;Xp-4d;Xp-5d;Xp-6d;Xp-7d;AXp-0d;AXp-1d;Xp-0dv;Xp-1dv;Xp-2dv;Xp-3dv;Xp-4dv;Xp-5dv;Xp-6dv;Xp-7dv;AXp-0dv;AXp-1dv;SZ;Sm;Sv;Sse;Spe;Sare;Sp;Si;MZ;Mm;Mv;Mse;Mpe;Mare;Mp;Mi;SpAbs_D;SpMax_D;SpDiam_D;SpAD_D;SpMAD_D;LogEE_D;VE1_D;VE2_D;VE3_D;VR1_D;VR2_D;VR3_D;NsCH3;NssCH2;NsssCH;NssssC;SsCH3;SssCH2;SsssCH;SssssC;MAXsCH3;MINsCH3;ECIndex;ETA_alpha;ETA_shape_p;ETA_shape_y;ETA_shape_x;ETA_beta;AETA_beta;ETA_beta_s;AETA_beta_s;ETA_eta;AETA_eta;ETA_eta_L;AETA_eta_L;ETA_eta_R;AETA_eta_R;ETA_eta_RL;AETA_eta_RL;ETA_eta_B;AETA_eta_B;ETA_eta_BR;AETA_eta_BR;ETA_epsilon_1;ETA_epsilon_2;ETA_epsilon_3;ETA_epsilon_4;ETA_epsilon_5;ETA_dBeta;AETA_dBeta;ETA_psi_1;ETA_dPsi_B;fragCpx;IC0;IC1;IC2;IC3;IC4;IC5;TIC0;TIC1;TIC2;TIC3;TIC4;TIC5;SIC0;SIC1;SIC2;SIC3;SIC4;SIC5;BIC0;BIC1;BIC2;BIC3;BIC4;BIC5;CIC0;CIC1;CIC2;CIC3;CIC4;CIC5;MIC0;MIC1;MIC2;MIC3;MIC4;MIC5;ZMIC0;ZMIC1;ZMIC2;ZMIC3;ZMIC4;ZMIC5;Kier1;Lipinski;GhoseFilter;FilterItLogS;VMcGowan;LabuteASA;PEOE_VSA6;PEOE_VSA7;SMR_VSA4;SMR_VSA5;SlogP_VSA4;SlogP_VSA5;EState_VSA3;EState_VSA4;EState_VSA5;EState_VSA7;EState_VSA8;VSA_EState4;VSA_EState5;VSA_EState7;VSA_EState8;MDEC-11;MID;AMID;MID_C;AMID_C;MPC2;MPC3;MPC4;MPC5;MPC6;MPC7;MPC8;MPC9;MPC10;TMPC10;piPC1;piPC2;piPC3;piPC4;piPC5;piPC6;piPC7;piPC8;piPC9;piPC10;TpiPC10;apol;bpol;nRot;RotRatio;SLogP;SMR;GGI1;GGI2;GGI3;GGI4;GGI5;GGI6;GGI7;GGI8;GGI9;GGI10;JGI1;JGI2;JGI3;JGI4;JGI5;JGI6;JGI7;JGI8;JGI9;JGI10;JGT10;Diameter;Radius;TopoShapeIndex;PetitjeanIndex;Vabc;VAdjMat;MWC01;MWC02;MWC03;MWC04;MWC05;MWC06;MWC07;MWC08;MWC09;MWC10;TMWC10;SRW02;SRW04;SRW06;SRW08;SRW10;TSRW10;MW;AMW;WPath;WPol;Zagreb1;Zagreb2;mZagreb1;mZagreb2
458.0;CCCCCCCCCCCCCCCCCCCCCCCCCCCCCCC;hentriacontane;IUJAMGNYPWYUPM-UHFFFAOYSA-N;38.710935249974376;1.9903694533443939;3.9807389066887877;38.71093524997438;1.2487398467733672;4.251127973136227;5.088866906246794;0.16415699697570305;2.7584573055325277;247.24705790170432;7.975711545216268;6.641790182637804;95.0;31.0;64.0;31.0;118.0;116.0;112.0;108.0;104.0;100.0;96.0;92.0;88.0;182.0;238.0;387.0;464.0;448.0;432.0;416.0;400.0;384.0;137.25;168.0;286.75;367.5;355.25;343.0;330.75;318.5;306.25;1180.0;1464.0;1811.0;1840.0;1776.0;1712.0;1648.0;1584.0;1520.0;4537.215847000004;5102.777261999999;5696.286484999999;5594.023707999999;5397.266978999998;5200.510249999998;5003.753520999999;4806.996791999999;4610.240062999999;15118.383597808757;20048.650500193085;27367.78840301639;29251.77829013778;28244.97994518266;27238.18160022753;26231.383255272405;25224.58491031728;24217.786565362156;663.7376920000002;681.7439280000001;1322.1723080000002;1884.1045600000004;1821.2196600000004;1758.3347600000004;1695.4498600000004;1632.5649600000004;1569.6800600000004;511.3374999999999;554.115;1042.3925;1444.21;1395.9075000000003;1347.605;1299.3025000000002;1251.0;1202.6974999999998;503.50999999999993;539.5;1021.6500000000002;1424.16;1376.5500000000002;1328.94;1281.3300000000002;1233.72;1186.1100000000001;114.911125910336;154.93383583999997;232.291957489715;264.619428781276;255.59789992187999;246.576371062484;237.55484220308801;228.53331334369201;219.511784484296;15765.35476834194;13603.673736325603;28830.10496843252;44548.49145164908;43069.53629661049;41590.581141571885;40111.6259865333;38632.670831494695;37153.7156764561;1.2421052631578948;1.2340425531914894;0.6021505376344086;0.4;1.9157894736842105;2.5319148936170213;2.0806451612903225;1.7185185185185186;1.444736842105263;1.7872340425531914;1.5416666666666667;1.3611111111111112;12.421052631578947;15.574468085106384;9.736559139784946;6.814814814814815;47.76016681052636;54.28486448936169;30.625196155913972;20.718606325925922;159.1408799769343;213.2835159595009;147.13864732804512;108.33991959310289;6.986712547368422;7.252594978723406;7.108453268817205;6.978165037037039;5.382499999999999;5.894840425531915;5.604260752688171;5.348925925925926;5.300105263157894;5.73936170212766;5.492741935483872;5.274666666666667;1.2095907990561683;1.6482322961702125;1.2488814918801883;0.9800719584491703;165.951102824652;144.71993336516599;155.00056434641138;164.99441278388548;0.13596362007177418;-0.004436660402071273;-0.06626888292855729;-0.00011355071454189009;-4.17198354004094e-06;-7.018372846626965e-08;-5.563234066669788e-10;-2.1148178694363473e-12;-3.879709054022129e-15;80.10526315789478;1.9168975069252185;-37.38504155124653;-0.2991689750692521;-0.3102493074792241;-0.3213296398891965;-0.3324099722991688;-0.3434903047091411;-0.35457063711911285;20.147368421052633;1.3489196675900241;-8.783268698060946;-0.12409972299168992;-0.1311911357340722;-0.13828254847645438;-0.1453739612188366;-0.15246537396121884;-0.15955678670360113;6.384210526315786;-0.6275346260387844;-2.7917174515235486;0.013296398891967098;0.012853185595568195;0.012409972299169292;0.011966759002770389;0.01152354570637143;0.011080332409972582;522.1052631578946;-11.346260387811688;-248.27977839335185;-0.720221606648197;-0.7313019390581665;-0.742382271468137;-0.7534626038781128;-0.7645429362880849;-0.7756232686980553;2528.368019536842;-54.94585848908612;-1202.3296754195012;-3.487774220498615;-3.5414322854293374;-3.5950903503600884;-3.6487484152908465;-3.702406480221576;-3.756064545152327;4701.608297509659;-102.17417013264215;-2235.7833727583516;-6.485665096309887;-6.585444559330028;-6.685224022350198;-6.785003485370312;-6.884782948390466;-6.984562411410593;0.49528993684210465;-0.010763516454297779;-0.2355281289750729;-0.0006832310249305961;-0.0006937422714679842;-0.000704253518005374;-0.0007147647645427622;-0.0007252760110801493;-0.0007357872576175331;2.5583157894736797;-0.05559667590025169;-1.2165709141273977;-0.0035290858725770535;-0.003583379501385972;-0.0036376731301948836;-0.003691966759003814;-0.0037462603878127276;-0.003800554016621646;1.879578947368419;-0.040846537396097754;-0.8938072022160428;-0.0025927977839343697;-0.0026326869806103173;-0.002672576177286265;-0.0027124653739622143;-0.0027523545706381637;-0.002792243767314115;21.01837664358332;-0.4567660798605646;-9.994991936479902;-0.028993940616148073;-0.02944000124101198;-0.02988606186587578;-0.030332122490739463;-0.03077818311560332;-0.03122424374046706;114.17215551455583;-2.4811605952215148;-54.292954831355445;-0.15749554559525625;-0.15991855398903176;-0.16234156238280772;-0.16476457077658277;-0.16718757917035854;-0.16961058756413294;0.0014311960007555176;-4.719851491565184e-05;-0.00035628431682020045;-4.2055820200700035e-07;0.8432132963988924;0.020392526669417217;-0.20099484704971252;-0.00110803324099723;0.21207756232686983;0.014350209229681108;-0.04722187472075777;-0.0004596286036729256;0.06720221606648195;-0.0066759002770083445;-0.01500923361034166;4.924592182210036e-05;5.4958448753462585;-0.12070489774267752;-1.3348375182438272;-0.0026674874320303595;26.61440020565097;-0.584530409458363;-6.464138039889791;-0.012917682298143019;49.490613657996406;-1.0869592567302355;-12.020340713754578;-0.02402098183818477;0.00521357828254847;-0.00011450549419465722;-0.0012662802633068434;-2.5304852775207262e-06;0.026929639889196628;-0.0005914539989388478;-0.006540703839394611;-1.307068841695205e-05;0.019785041551246517;-0.00043453763187338036;-0.0048054150656776495;-9.60295475531248e-06;0.221246069932456;-0.004859213615537921;-0.053736515787526355;-0.00010738496524499286;1.2018121633111138;-0.026395325481079944;-0.29189760662019054;-0.0005833168355379861;-0.032978372557452715;-0.24894166601368412;-0.0002938508784156683;0.02418430396734432;-0.23836773910954723;-0.0013140604467805513;-0.0993404781533394;-0.22334432536411136;0.0007328020518457642;-0.02196293754289647;-0.24288122181755128;-0.00048536439665471776;-0.021962937542896462;-0.24288122181755115;-0.0004853643966547192;-0.021962937542897305;-0.24288122181755167;-0.00048536439665470985;-0.02196293754290486;-0.24288122181755517;-0.00048536439665461194;-0.0219629375428864;-0.24288122181754637;-0.0004853643966548406;-0.02196293754288341;-0.24288122181754498;-0.00048536439665487915;-0.021962937542896858;-0.24288122181755148;-0.0004853643966547126;-0.0219629375428837;-0.2428812218175452;-0.00048536439665487264;1.5436344752860645;1.4676539876735768;0.975430124341812;1.4980289093298285;1.5078278439517887;1.003956782011972;1.6446826051112953;1.3457259615810804;0.8997893194100949;1.5322580645161294;1.4761370534165805;0.9835536140979693;1.5322580645161292;1.47613705341658;0.9835536140979689;1.5322580645161297;1.4761370534165805;0.9835536140979693;1.532258064516129;1.4761370534165803;0.983553614097969;1.5322580645161286;1.4761370534165796;0.9835536140979687;1.5322580645161292;1.47613705341658;0.9835536140979689;1.5322580645161292;1.4761370534165805;0.9835536140979694;1.5322580645161294;1.4761370534165803;0.9835536140979692;0.22548532325664813;-0.19812752845469694;2.2233159526397634;0.9871436102075696;2.2233159526397634;0.9871436102075696;2.025919679041453;1.3020553809687905;6.225567318493025;5.801893324722877;12.236567318493037;11.812893324722886;20.805093594608525;20.381419600838388;2.9715673184930247;2.5478933247228848;2.7755673184930276;2.351893324722882;2.725567318493023;2.301893324722882;1.8955673184930224;1.4718933247228823;11.485867318493028;11.062193324722891;2.9779031597789904;666.9222144898397;333.46110724491984;528.3671744915507;666.9222144898397;21.513619822252892;333.46110724491984;5.471407610130228;0.17649701968162027;2.8309380275683544;177.35872706896325;5.721249260289137;6.3095764996701265;666.9222144898397;333.46110724491984;528.3671744915507;666.9222144898397;21.513619822252892;333.46110724491984;5.471407610130228;0.17649701968162027;2.8309380275683544;177.35872706896325;5.721249260289137;6.3095764996701265;666.9222144898397;333.46110724491984;528.3671744915507;666.9222144898397;21.513619822252892;333.46110724491984;5.471407610130228;0.17649701968162027;2.8309380275683544;177.35872706896325;5.721249260289137;6.3095764996701265;666.9222144898397;333.46110724491984;528.3671744915507;666.9222144898397;21.513619822252892;333.46110724491984;5.471407610130228;0.17649701968162027;2.8309380275683544;177.35872706896325;5.721249260289137;6.3095764996701265;666.9222144898397;333.46110724491984;528.3671744915507;666.9222144898397;21.513619822252892;333.46110724491984;5.471407610130228;0.17649701968162027;2.8309380275683544;177.35872706896325;5.721249260289137;6.3095764996701265;666.9222144898397;333.46110724491984;528.3671744915507;666.9222144898397;21.513619822252892;333.46110724491984;5.471407610130228;0.17649701968162027;2.8309380275683544;177.35872706896325;5.721249260289137;6.3095764996701265;666.9222144898397;333.46110724491984;528.3671744915507;666.9222144898397;21.513619822252892;333.46110724491984;5.471407610130228;0.17649701968162027;2.8309380275683544;177.35872706896325;5.721249260289137;6.3095764996701265;666.9222144898397;333.46110724491984;528.3671744915507;666.9222144898397;21.513619822252892;333.46110724491984;5.471407610130228;0.17649701968162027;2.8309380275683544;177.35872706896325;5.721249260289137;6.3095764996701265;253.7628977173992;94.0;30.0;94.0;94.0;0.038850670734765176;0.015837391472633973;2.0;29.0;0.0;0.0;0.0;0.0;0.0;0.0;0.0;0.0;0.0;0.0;0.0;0.0;0.0;0.0;0.0;0.0;22.506096654409873;15.414213562373096;10.54594154601839;7.207106781186548;4.919417382415922;3.353553390593274;2.2829319959113246;1.551776695296637;0.7260031178841895;0.5138071187457699;22.506096654409873;15.414213562373096;10.54594154601839;7.207106781186548;4.919417382415922;3.353553390593274;2.2829319959113246;1.551776695296637;0.7260031178841895;0.5138071187457699;41.666666666666664;36.37107651319624;48.33848972114801;91.41077931536782;86.2156862745098;87.32;56.55374371257484;108.28926866957369;0.43859649122807015;0.3828534369810131;0.5088262075910317;0.9622187296354507;0.9075335397316822;0.9191578947368421;0.5953025653955246;1.1398870386270914;666.9222144898397;333.46110724491984;528.3671744915507;666.9222144898397;21.513619822252892;333.46110724491984;5.471407610130228;0.17649701968162027;2.8309380275683544;177.35872706896325;5.721249260289137;6.3095764996701265;2.0;29.0;0.0;0.0;4.6121501176015975;42.88784988239839;0.0;0.0;2.3060750588007988;2.3060750588007988;1350.0;15.5;0.06451612903225806;0.0;0.0;15.0;0.4838709677419355;15.0;0.4838709677419355;48.579937928320156;1.5670947718812953;15.414213562373096;0.49723269556042243;48.579937928320156;1.5670947718812953;15.414213562373096;0.49723269556042243;0.0;0.0;0.0;0.0;0.43052631578947365;0.7;0.43052631578947365;0.43052631578947365;0.7;-15.0;-0.4838709677419355;0.7142857142857143;0.00028571428571433355;30.0;0.9111178649415465;1.0237350940288468;1.436648921171582;1.7659597676412386;2.0883344558849006;2.403199915054069;86.55619716944692;97.25483393274044;136.48164751130028;167.76617792591767;198.39177330906557;228.30399193013653;0.13868156611938284;0.15582307360464556;0.21867283039673355;0.26879734851431164;0.3178661115834532;0.36579189229161685;0.13900457916721157;0.15618601215037664;0.2191821567578375;0.2694234234370389;0.31860647603402226;0.366643884068941;5.658737743389401;5.5461205143021015;5.133206687159365;4.803895840689709;4.481521152446048;4.166655693276879;6.719354985899368;8.072000524466933;9.70427921761677;11.2275086837839;12.716982798427093;14.169790970720811;122.63179035441144;116.90446741629198;113.09711490806893;107.54261329028716;101.41402387840358;94.80963475006618;31.0;0.0;0.0;-12.280617664121444;447.6500000000002;199.68751445972788;200.05130146423562;0.0;0.0;200.05130146423562;0.0;200.05130146423562;0.0;0.0;186.20382706485435;0.0;13.847474399381248;0.0;0.0;42.88784988239839;4.6121501176015975;0.03333333333333333;60.828427125065765;1.9622073266150246;60.828427125065765;1.9622073266150246;29.0;28.0;27.0;26.0;25.0;24.0;23.0;22.0;21.0;286.0;3.4339872044851463;3.4011973816621555;3.367295829986474;3.332204510175204;3.295836866004329;3.258096538021482;3.2188758248682006;3.1780538303479458;3.1354942159291497;3.091042453358316;5.659482215759621;94.444752;64.205248;28.0;0.9333333333333333;12.33909999999998;145.2409999999999;0.5;0.22222222222222232;0.125;0.08000000000000002;0.05555555555555555;0.04081632653061225;0.03125;0.02469135802469135;0.020000000000000004;0.01652892561983471;0.016666666666666666;0.007662835249042149;0.004464285714285714;0.0029629629629629637;0.0021367521367521365;0.0016326530612244899;0.0013020833333333333;0.001073537305421363;0.0009090909090909093;0.0007870916961826053;0.03959795903496233;30.0;15.0;1.0;0.5;544.732000887318;5.906890595608519;30.0;4.77912349311153;5.4510384535657;6.129050210060545;6.807934943699926;7.489412083508719;8.17103418920548;8.854093907655518;9.537122958049878;10.221104570071097;128.4399148089284;4.110873864173311;5.176149732573829;6.3578422665081;7.59337419312129;8.859505484519133;63.097745540895666;436.5008020480018;4.594745284715808;4960.0;28.0;118.0;116.0;9.25;8.0