boiling_point;SMILES;IUPAC_name;InChIKey;SpAbs_A;SpMax_A;SpDiam_A;SpAD_A;SpMAD_A;LogEE_A;VE1_A;VE2_A;VE3_A;VR1_A;VR2_A;VR3_A;nAtom;nHeavyAtom;nH;nC;ATS0dv;ATS1dv;ATS2dv;ATS3dv;ATS4dv;ATS5dv;ATS6dv;ATS7dv;ATS8dv;ATS0d;ATS1d;ATS2d;ATS3d;ATS4d;ATS5d;ATS6d;ATS7d;ATS8d;ATS0s;ATS1s;ATS2s;ATS3s;ATS4s;ATS5s;ATS6s;ATS7s;ATS8s;ATS0Z;ATS1Z;ATS2Z;ATS3Z;ATS4Z;ATS5Z;ATS6Z;ATS7Z;ATS8Z;ATS0m;ATS1m;ATS2m;ATS3m;ATS4m;ATS5m;ATS6m;ATS7m;ATS8m;ATS0v;ATS1v;ATS2v;ATS3v;ATS4v;ATS5v;ATS6v;ATS7v;ATS8v;ATS0se;ATS1se;ATS2se;ATS3se;ATS4se;ATS5se;ATS6se;ATS7se;ATS8se;ATS0pe;ATS1pe;ATS2pe;ATS3pe;ATS4pe;ATS5pe;ATS6pe;ATS7pe;ATS8pe;ATS0are;ATS1are;ATS2are;ATS3are;ATS4are;ATS5are;ATS6are;ATS7are;ATS8are;ATS0p;ATS1p;ATS2p;ATS3p;ATS4p;ATS5p;ATS6p;ATS7p;ATS8p;ATS0i;ATS1i;ATS2i;ATS3i;ATS4i;ATS5i;ATS6i;ATS7i;ATS8i;AATS0dv;AATS1dv;AATS2dv;AATS3dv;AATS0d;AATS1d;AATS2d;AATS3d;AATS0s;AATS1s;AATS2s;AATS3s;AATS0Z;AATS1Z;AATS2Z;AATS3Z;AATS0m;AATS1m;AATS2m;AATS3m;AATS0v;AATS1v;AATS2v;AATS3v;AATS0se;AATS1se;AATS2se;AATS3se;AATS0pe;AATS1pe;AATS2pe;AATS3pe;AATS0are;AATS1are;AATS2are;AATS3are;AATS0p;AATS1p;AATS2p;AATS3p;AATS0i;AATS1i;AATS2i;AATS3i;ATSC0c;ATSC1c;ATSC2c;ATSC3c;ATSC4c;ATSC5c;ATSC6c;ATSC7c;ATSC8c;ATSC0dv;ATSC1dv;ATSC2dv;ATSC3dv;ATSC4dv;ATSC5dv;ATSC6dv;ATSC7dv;ATSC8dv;ATSC0d;ATSC1d;ATSC2d;ATSC3d;ATSC4d;ATSC5d;ATSC6d;ATSC7d;ATSC8d;ATSC0s;ATSC1s;ATSC2s;ATSC3s;ATSC4s;ATSC5s;ATSC6s;ATSC7s;ATSC8s;ATSC0Z;ATSC1Z;ATSC2Z;ATSC3Z;ATSC4Z;ATSC5Z;ATSC6Z;ATSC7Z;ATSC8Z;ATSC0m;ATSC1m;ATSC2m;ATSC3m;ATSC4m;ATSC5m;ATSC6m;ATSC7m;ATSC8m;ATSC0v;ATSC1v;ATSC2v;ATSC3v;ATSC4v;ATSC5v;ATSC6v;ATSC7v;ATSC8v;ATSC0se;ATSC1se;ATSC2se;ATSC3se;ATSC4se;ATSC5se;ATSC6se;ATSC7se;ATSC8se;ATSC0pe;ATSC1pe;ATSC2pe;ATSC3pe;ATSC4pe;ATSC5pe;ATSC6pe;ATSC7pe;ATSC8pe;ATSC0are;ATSC1are;ATSC2are;ATSC3are;ATSC4are;ATSC5are;ATSC6are;ATSC7are;ATSC8are;ATSC0p;ATSC1p;ATSC2p;ATSC3p;ATSC4p;ATSC5p;ATSC6p;ATSC7p;ATSC8p;ATSC0i;ATSC1i;ATSC2i;ATSC3i;ATSC4i;ATSC5i;ATSC6i;ATSC7i;ATSC8i;AATSC0c;AATSC1c;AATSC2c;AATSC3c;AATSC0dv;AATSC1dv;AATSC2dv;AATSC3dv;AATSC0d;AATSC1d;AATSC2d;AATSC3d;AATSC0s;AATSC1s;AATSC2s;AATSC3s;AATSC0Z;AATSC1Z;AATSC2Z;AATSC3Z;AATSC0m;AATSC1m;AATSC2m;AATSC3m;AATSC0v;AATSC1v;AATSC2v;AATSC3v;AATSC0se;AATSC1se;AATSC2se;AATSC3se;AATSC0pe;AATSC1pe;AATSC2pe;AATSC3pe;AATSC0are;AATSC1are;AATSC2are;AATSC3are;AATSC0p;AATSC1p;AATSC2p;AATSC3p;AATSC0i;AATSC1i;AATSC2i;AATSC3i;MATS1c;MATS2c;MATS3c;MATS1dv;MATS2dv;MATS3dv;MATS1s;MATS2s;MATS3s;MATS1Z;MATS2Z;MATS3Z;MATS1m;MATS2m;MATS3m;MATS1v;MATS2v;MATS3v;MATS1se;MATS2se;MATS3se;MATS1pe;MATS2pe;MATS3pe;MATS1are;MATS2are;MATS3are;MATS1p;MATS2p;MATS3p;MATS1i;MATS2i;MATS3i;GATS1c;GATS2c;GATS3c;GATS1dv;GATS2dv;GATS3dv;GATS1s;GATS2s;GATS3s;GATS1Z;GATS2Z;GATS3Z;GATS1m;GATS2m;GATS3m;GATS1v;GATS2v;GATS3v;GATS1se;GATS2se;GATS3se;GATS1pe;GATS2pe;GATS3pe;GATS1are;GATS2are;GATS3are;GATS1p;GATS2p;GATS3p;GATS1i;GATS2i;GATS3i;BCUTc-1h;BCUTc-1l;BCUTdv-1h;BCUTdv-1l;BCUTd-1h;BCUTd-1l;BCUTs-1h;BCUTs-1l;BCUTZ-1h;BCUTZ-1l;BCUTm-1h;BCUTm-1l;BCUTv-1h;BCUTv-1l;BCUTse-1h;BCUTse-1l;BCUTpe-1h;BCUTpe-1l;BCUTare-1h;BCUTare-1l;BCUTp-1h;BCUTp-1l;BCUTi-1h;BCUTi-1l;BalabanJ;SpAbs_DzZ;SpMax_DzZ;SpDiam_DzZ;SpAD_DzZ;SpMAD_DzZ;LogEE_DzZ;VE1_DzZ;VE2_DzZ;VE3_DzZ;VR1_DzZ;VR2_DzZ;VR3_DzZ;SpAbs_Dzm;SpMax_Dzm;SpDiam_Dzm;SpAD_Dzm;SpMAD_Dzm;LogEE_Dzm;VE1_Dzm;VE2_Dzm;VE3_Dzm;VR1_Dzm;VR2_Dzm;VR3_Dzm;SpAbs_Dzv;SpMax_Dzv;SpDiam_Dzv;SpAD_Dzv;SpMAD_Dzv;LogEE_Dzv;VE1_Dzv;VE2_Dzv;VE3_Dzv;VR1_Dzv;VR2_Dzv;VR3_Dzv;SpAbs_Dzse;SpMax_Dzse;SpDiam_Dzse;SpAD_Dzse;SpMAD_Dzse;LogEE_Dzse;VE1_Dzse;VE2_Dzse;VE3_Dzse;VR1_Dzse;VR2_Dzse;VR3_Dzse;SpAbs_Dzpe;SpMax_Dzpe;SpDiam_Dzpe;SpAD_Dzpe;SpMAD_Dzpe;LogEE_Dzpe;VE1_Dzpe;VE2_Dzpe;VE3_Dzpe;VR1_Dzpe;VR2_Dzpe;VR3_Dzpe;SpAbs_Dzare;SpMax_Dzare;SpDiam_Dzare;SpAD_Dzare;SpMAD_Dzare;LogEE_Dzare;VE1_Dzare;VE2_Dzare;VE3_Dzare;VR1_Dzare;VR2_Dzare;VR3_Dzare;SpAbs_Dzp;SpMax_Dzp;SpDiam_Dzp;SpAD_Dzp;SpMAD_Dzp;LogEE_Dzp;VE1_Dzp;VE2_Dzp;VE3_Dzp;VR1_Dzp;VR2_Dzp;VR3_Dzp;SpAbs_Dzi;SpMax_Dzi;SpDiam_Dzi;SpAD_Dzi;SpMAD_Dzi;LogEE_Dzi;VE1_Dzi;VE2_Dzi;VE3_Dzi;VR1_Dzi;VR2_Dzi;VR3_Dzi;BertzCT;nBonds;nBondsO;nBondsS;nBondsKS;RNCG;RPCG;C1SP3;C2SP3;C3SP3;C4SP3;Xc-3d;Xc-4d;Xc-5d;Xc-6d;Xc-3dv;Xc-4dv;Xc-5dv;Xc-6dv;Xpc-4d;Xpc-5d;Xpc-6d;Xpc-4dv;Xpc-5dv;Xpc-6dv;Xp-0d;Xp-1d;Xp-2d;Xp-3d;Xp-4d;Xp-5d;Xp-6d;Xp-7d;AXp-0d;AXp-1d;Xp-0dv;Xp-1dv;Xp-2dv;Xp-3dv;Xp-4dv;Xp-5dv;Xp-6dv;Xp-7dv;AXp-0dv;AXp-1dv;SZ;Sm;Sv;Sse;Spe;Sare;Sp;Si;MZ;Mm;Mv;Mse;Mpe;Mare;Mp;Mi;SpAbs_D;SpMax_D;SpDiam_D;SpAD_D;SpMAD_D;LogEE_D;VE1_D;VE2_D;VE3_D;VR1_D;VR2_D;VR3_D;NsCH3;NssCH2;NsssCH;NssssC;SsCH3;SssCH2;SsssCH;SssssC;MAXsCH3;MINsCH3;ECIndex;ETA_alpha;ETA_shape_p;ETA_shape_y;ETA_shape_x;ETA_beta;AETA_beta;ETA_beta_s;AETA_beta_s;ETA_eta;AETA_eta;ETA_eta_L;AETA_eta_L;ETA_eta_R;AETA_eta_R;ETA_eta_RL;AETA_eta_RL;ETA_eta_B;AETA_eta_B;ETA_eta_BR;AETA_eta_BR;ETA_epsilon_1;ETA_epsilon_2;ETA_epsilon_3;ETA_epsilon_4;ETA_epsilon_5;ETA_dBeta;AETA_dBeta;ETA_psi_1;ETA_dPsi_B;fragCpx;IC0;IC1;IC2;IC3;IC4;IC5;TIC0;TIC1;TIC2;TIC3;TIC4;TIC5;SIC0;SIC1;SIC2;SIC3;SIC4;SIC5;BIC0;BIC1;BIC2;BIC3;BIC4;BIC5;CIC0;CIC1;CIC2;CIC3;CIC4;CIC5;MIC0;MIC1;MIC2;MIC3;MIC4;MIC5;ZMIC0;ZMIC1;ZMIC2;ZMIC3;ZMIC4;ZMIC5;Kier1;Lipinski;GhoseFilter;FilterItLogS;VMcGowan;LabuteASA;PEOE_VSA6;PEOE_VSA7;SMR_VSA4;SMR_VSA5;SlogP_VSA4;SlogP_VSA5;EState_VSA3;EState_VSA4;EState_VSA5;EState_VSA7;EState_VSA8;VSA_EState4;VSA_EState5;VSA_EState7;VSA_EState8;MDEC-11;MID;AMID;MID_C;AMID_C;MPC2;MPC3;MPC4;MPC5;MPC6;MPC7;MPC8;MPC9;MPC10;TMPC10;piPC1;piPC2;piPC3;piPC4;piPC5;piPC6;piPC7;piPC8;piPC9;piPC10;TpiPC10;apol;bpol;nRot;RotRatio;SLogP;SMR;GGI1;GGI2;GGI3;GGI4;GGI5;GGI6;GGI7;GGI8;GGI9;GGI10;JGI1;JGI2;JGI3;JGI4;JGI5;JGI6;JGI7;JGI8;JGI9;JGI10;JGT10;Diameter;Radius;TopoShapeIndex;PetitjeanIndex;Vabc;VAdjMat;MWC01;MWC02;MWC03;MWC04;MWC05;MWC06;MWC07;MWC08;MWC09;MWC10;TMWC10;SRW02;SRW04;SRW06;SRW08;SRW10;TSRW10;MW;AMW;WPath;WPol;Zagreb1;Zagreb2;mZagreb1;mZagreb2
115.6;CCC(CC)C(C)C;3-ethyl-2-methylpentane;DUPUVYJQZSLSJB-UHFFFAOYSA-N;8.720566232730445;2.101002989615458;4.202005979230915;8.720566232730445;1.0900707790913056;2.9008501330815775;2.5941650465850543;0.3242706308231318;0.7301211588416564;20.30075873212358;2.5375948415154475;2.7875147100017466;26.0;8.0;18.0;8.0;30.0;31.0;29.0;18.0;5.0;0.0;0.0;0.0;0.0;48.0;57.0;101.0;111.0;102.0;72.0;45.0;0.0;0.0;42.05555555555556;49.77777777777777;74.91666666666666;96.66666666666666;111.99999999999999;102.0;45.0;0.0;0.0;306.0;360.0;458.0;503.0;437.0;222.0;45.0;0.0;0.0;1172.4021199999997;1227.7764309999998;1483.1221519999997;1564.9092559999997;1210.8558050000001;405.88732799999997;45.72288;0.0;0.0;3947.6426137513827;5029.877406914644;6806.459661661145;7774.633059762629;7379.0045193233345;4747.615757214629;1398.768499391862;0.0;0.0;181.25648000000004;180.90098799999998;339.441056;442.613024;503.0080520000001;495.70444800000007;302.33088;0.0;0.0;139.14000000000001;146.4975;265.64;342.86;386.05249999999995;371.58;217.79999999999998;0.0;0.0;137.12;142.75;260.76;337.32000000000005;380.61;368.28;217.79999999999998;0.0;0.0;30.314232287281996;39.56609758;57.487932727886;68.170714731527;69.152958020621;52.080071303658;20.007580718205;0.0;0.0;4342.872585156481;3643.7663514622;7584.388217594886;10167.382372090527;11815.240502243425;12360.217816405459;8321.294341091205;0.0;0.0;1.1538461538461537;1.24;0.6041666666666666;0.2857142857142857;1.8461538461538463;2.28;2.1041666666666665;1.7619047619047619;1.6175213675213675;1.9911111111111108;1.5607638888888886;1.5343915343915342;11.76923076923077;14.4;9.541666666666666;7.984126984126984;45.09238923076922;49.111057239999994;30.89837816666666;24.839829460317457;151.83240822120703;201.19509627658576;141.80124295127385;123.40687396448618;6.971403076923078;7.236039519999999;7.071688666666667;7.025603555555556;5.351538461538462;5.8599;5.534166666666667;5.442222222222222;5.273846153846154;5.71;5.4325;5.354285714285715;1.1659320110493074;1.5826439032;1.1976652651642916;1.082074837008365;167.03356096755698;145.750654058488;158.00808786656012;161.38702177921473;0.036584520612285884;-0.007532795222296518;-0.004822434700367504;0.0005621461519022724;-0.012558567485078597;-0.01806605333245389;0.02412544428215129;0.0;0.0;22.461538461538467;8.094674556213022;-5.5443786982248495;-15.426035502958582;-16.124260355029588;4.72189349112426;13.047337278106507;0.0;0.0;8.615384615384617;3.792899408284023;-3.520710059171599;-7.721893491124261;-3.0887573964497044;3.8343195266272216;2.396449704142013;0.0;0.0;3.4871794871794872;-1.6415187376725826;-0.03402366863905304;0.12080867850098675;0.7919132149901387;-3.118343195266272;2.1375739644970393;0.0;0.0;138.46153846153845;-11.98224852071005;-9.467455621301767;-20.11834319526627;-73.81656804733727;-60.355029585798825;106.50887573964495;0.0;0.0;670.5194344615384;-58.02572028994065;-45.84748269822463;-97.42590073372767;-357.4670916627218;-292.2777022011836;515.7841803550291;0.0;0.0;1246.8595205864642;-107.90130466613648;-85.25535183497206;-181.16762264931546;-664.7253213382966;-543.5028679479457;959.1227081434342;0.0;0.0;0.13135015384615373;-0.01136684023668524;-0.008981207100590853;-0.019085065088756743;-0.07002534911242571;-0.057255195266273116;0.1010385798816548;0.0;0.0;0.6784615384615371;-0.05871301775148015;-0.04639053254437936;-0.0985798816568051;-0.3617011834319522;-0.2957396449704128;0.521893491124261;0.0;0.0;0.49846153846153785;-0.04313609467455702;-0.034082840236687006;-0.07242603550295898;-0.26573964497041414;-0.21727810650887477;0.3834319526627229;0.0;0.0;5.574042193009846;-0.482369035933545;-0.38113109012033164;-0.8099035665057048;-2.9716314682819585;-2.4297106995171114;4.287724763853728;0.0;0.0;30.278285659102124;-2.620236258960829;-2.0703101305369493;-4.399409027390945;-16.141949299029886;-13.198227082172657;23.29098896854021;0.0;0.0;0.0014070969466263802;-0.00030131180889186074;-0.00010046738959098966;8.92295479209956e-06;0.8639053254437872;0.32378698224852087;-0.11550788954635104;-0.24485770639616797;0.33136094674556216;0.1517159763313609;-0.07334812623274165;-0.12256973795435334;0.1341222879684418;-0.0656607495069033;-0.0007088264299802716;0.0019175980714442342;5.325443786982248;-0.479289940828402;-0.19723865877712013;-0.3193387808772424;25.789209017751475;-2.321028811597626;-0.9551558895463464;-1.5464428687893281;47.9561354071717;-4.316052186645459;-1.7761531632285845;-2.875676549989134;0.005051928994082836;-0.0004546736094674096;-0.00018710848126230945;-0.00030293754109137687;0.026094674556212966;-0.002348520710059206;-0.0009664694280079033;-0.0015647600262984937;0.01917159763313607;-0.0017254437869822809;-0.000710059171597646;-0.001149619611158079;0.21438623819268637;-0.019294761437341802;-0.007940231044173575;-0.01285561216675722;1.1645494484270047;-0.10480945035843316;-0.043131461052853114;-0.0698318893236658;-0.2141372061209274;-0.07140047445335428;0.006341393045797597;0.3747945205479453;-0.13370433789954328;-0.2834311806914546;-0.4895588235294114;-0.005284926470588202;0.014297385620915098;-0.08999999999999993;-0.03703703703703701;-0.059964726631393295;-0.08999999999999975;-0.03703703703703686;-0.05996472663139322;-0.09000000000000012;-0.037037037037037104;-0.05996472663139334;-0.08999999999999098;-0.03703703703703352;-0.0599647266313913;-0.09000000000000151;-0.03703703703703764;-0.059964726631393635;-0.0900000000000018;-0.03703703703703776;-0.0599647266313937;-0.09000000000000014;-0.03703703703703706;-0.05996472663139336;-0.09000000000000234;-0.03703703703703797;-0.05996472663139382;1.7498526235356677;1.1211648688003188;1.0224050842784347;1.2910958904109586;1.9013984018264836;1.6960208741030653;2.1029411764705883;0.8339077818627453;0.8913982259570494;1.625;1.222511574074074;1.146384479717813;1.6250000000000007;1.2225115740740744;1.1463844797178133;1.6249999999999998;1.2225115740740737;1.1463844797178129;1.625;1.222511574074074;1.1463844797178129;1.6249999999999998;1.222511574074074;1.1463844797178129;1.6250000000000002;1.2225115740740742;1.1463844797178133;1.6250000000000002;1.2225115740740742;1.146384479717813;1.6250000000000002;1.2225115740740742;1.146384479717813;0.2164455813713949;-0.2219493542207196;3.11512809404714;0.987208314563063;3.11512809404714;0.987208314563063;2.0375431215230257;1.1844534851453565;6.221349080394899;5.783588503541654;12.23234908039489;11.794588503541643;20.800875356510428;20.363114779657167;2.967349080394902;2.52958850354165;2.771349080394901;2.3335885035416517;2.7213490803948996;2.2835885035416523;1.8913490803948985;1.4535885035416505;11.481649080394897;11.043888503541652;3.3548772347438;34.83747069060096;17.41873534530048;23.9498728816297;34.83747069060096;4.35468383632512;17.418735425742263;2.778882511629665;0.34736031395370814;0.7989053213411028;22.710233123401093;2.8387791404251366;2.899672069981794;34.83747069060096;17.41873534530048;23.9498728816297;34.83747069060096;4.35468383632512;17.418735425742263;2.778882511629665;0.34736031395370814;0.7989053213411028;22.710233123401093;2.8387791404251366;2.899672069981794;34.83747069060096;17.41873534530048;23.9498728816297;34.83747069060096;4.35468383632512;17.418735425742263;2.778882511629665;0.34736031395370814;0.7989053213411028;22.710233123401093;2.8387791404251366;2.899672069981794;34.83747069060096;17.41873534530048;23.9498728816297;34.83747069060096;4.35468383632512;17.418735425742263;2.778882511629665;0.34736031395370814;0.7989053213411028;22.710233123401093;2.8387791404251366;2.899672069981794;34.83747069060096;17.41873534530048;23.9498728816297;34.83747069060096;4.35468383632512;17.418735425742263;2.778882511629665;0.34736031395370814;0.7989053213411028;22.710233123401093;2.8387791404251366;2.899672069981794;34.83747069060096;17.41873534530048;23.9498728816297;34.83747069060096;4.35468383632512;17.418735425742263;2.778882511629665;0.34736031395370814;0.7989053213411028;22.710233123401093;2.8387791404251366;2.899672069981794;34.83747069060096;17.41873534530048;23.9498728816297;34.83747069060096;4.35468383632512;17.418735425742263;2.778882511629665;0.34736031395370814;0.7989053213411028;22.710233123401093;2.8387791404251366;2.899672069981794;34.83747069060096;17.41873534530048;23.9498728816297;34.83747069060096;4.35468383632512;17.418735425742263;2.778882511629665;0.34736031395370814;0.7989053213411028;22.710233123401093;2.8387791404251366;2.899672069981794;42.0;25.0;7.0;25.0;25.0;0.14620168105062273;0.06851440518238196;4.0;2.0;2.0;0.0;0.5;0.0;0.16666666666666666;0.0;0.5;0.0;0.16666666666666666;0.0;1.1380711874576983;1.304737854124365;0.6666666666666666;1.1380711874576983;1.304737854124365;0.6666666666666666;6.568914100752346;3.718744015013406;2.820593172169863;1.991563831562721;1.2314841761768762;0.0;0.0;0.0;0.8211142625940433;0.5312491450019151;6.568914100752346;3.718744015013406;2.820593172169863;1.991563831562721;1.2314841761768762;0.0;0.0;0.0;0.8211142625940433;0.5312491450019151;11.0;9.510615269336444;12.87645023407287;24.990531682447198;23.529411764705884;23.84;15.186990419161678;29.737606813317583;0.4230769230769231;0.36579289497447864;0.4952480859258796;0.9611742954787383;0.904977375565611;0.916923076923077;0.584115016121603;1.1437541082045224;34.83747069060096;17.41873534530048;23.9498728816297;34.83747069060096;4.35468383632512;17.418735425742263;2.778882511629665;0.34736031395370814;0.7989053213411028;22.710233123401093;2.8387791404251366;2.899672069981794;4.0;2.0;2.0;0.0;9.150462962962964;2.6828703703703702;1.833333333333333;0.0;2.303240740740741;2.271990740740741;43.0;4.0;0.5;0.25;0.0;3.5;0.4375;3.5;0.4375;9.080806585689366;1.1351008232111708;3.718744015013406;0.46484300187667577;9.080806585689366;1.1351008232111708;3.718744015013406;0.46484300187667577;0.1954695473596888;0.0244336934199611;0.1954695473596888;0.0244336934199611;0.4230769230769231;0.7;0.4230769230769231;0.4230769230769231;0.7;-3.5;-0.4375;0.7142857142857143;0.00028571428571433355;7.0;0.8904916402194913;1.3520301017579528;2.4304570255005586;2.968918563962097;2.968918563962097;2.968918563962097;23.152782645706775;35.15278264570677;63.191882663014525;77.19188266301452;77.19188266301452;77.19188266301452;0.1894485821789581;0.2876390684343565;0.5170701405062896;0.6316257078042544;0.6316257078042544;0.6316257078042544;0.19175693730143042;0.29114383531836724;0.5233704331439388;0.6393218141636984;0.6393218141636984;0.6393218141636984;3.8099480779216;3.348409616383139;2.269982692640533;1.7315211541789948;1.7315211541789948;1.7315211541789948;6.654519640635535;12.198058102173997;15.82426628746039;16.36703551822962;16.36703551822962;16.36703551822962;31.72521615294554;23.41346490856623;20.825940384428634;20.298431188639498;20.298431188639498;20.298431188639498;8.0;1.0;0.0;-2.278202200549686;123.58000000000004;53.29384582860579;40.53659204461451;11.835812092322787;11.835812092322787;40.53659204461451;11.835812092322787;40.53659204461451;0.0;11.835812092322787;12.841643245852019;0.0;27.694948798762496;0.0;1.833333333333333;2.6828703703703702;9.150462962962964;1.6836930724640597;14.501137576846991;1.812642197105874;14.501137576846991;1.812642197105874;8.0;8.0;5.0;0.0;0.0;0.0;0.0;0.0;0.0;36.0;2.0794415416798357;2.1972245773362196;2.1972245773362196;1.791759469228055;0.0;0.0;0.0;0.0;0.0;0.0;3.6109179126442243;25.362274;18.057726;3.0;0.42857142857142855;3.0786000000000016;38.91;2.0;1.1111111111111116;0.625;0.0;0.0;0.0;0.0;0.0;0.0;0.0;0.2857142857142857;0.13888888888888895;0.078125;0.0;0.0;0.0;0.0;0.0;0.0;0.0;0.5027281746031746;4.0;2.0;1.0;0.5;146.92434073860016;3.807354922057604;7.0;3.4339872044851463;4.143134726391533;4.890349128221754;5.616771097666572;6.368187186350492;7.099201743553092;7.851271997109883;8.583542571957771;9.335650562941629;72.32209621867786;2.70805020110221;3.8501476017100584;5.209486152841421;6.652863029353347;8.12415060330663;34.54469758831367;114.14085057599999;4.3900327144615385;67.0;8.0;30.0;31.0;4.722222222222222;2.111111111111111