boiling_point;SMILES;IUPAC_name;InChIKey;SpAbs_A;SpMax_A;SpDiam_A;SpAD_A;SpMAD_A;LogEE_A;VE1_A;VE2_A;VE3_A;VR1_A;VR2_A;VR3_A;nAtom;nHeavyAtom;nH;nC;ATS0dv;ATS1dv;ATS2dv;ATS3dv;ATS4dv;ATS5dv;ATS6dv;ATS7dv;ATS8dv;ATS0d;ATS1d;ATS2d;ATS3d;ATS4d;ATS5d;ATS6d;ATS7d;ATS8d;ATS0s;ATS1s;ATS2s;ATS3s;ATS4s;ATS5s;ATS6s;ATS7s;ATS8s;ATS0Z;ATS1Z;ATS2Z;ATS3Z;ATS4Z;ATS5Z;ATS6Z;ATS7Z;ATS8Z;ATS0m;ATS1m;ATS2m;ATS3m;ATS4m;ATS5m;ATS6m;ATS7m;ATS8m;ATS0v;ATS1v;ATS2v;ATS3v;ATS4v;ATS5v;ATS6v;ATS7v;ATS8v;ATS0se;ATS1se;ATS2se;ATS3se;ATS4se;ATS5se;ATS6se;ATS7se;ATS8se;ATS0pe;ATS1pe;ATS2pe;ATS3pe;ATS4pe;ATS5pe;ATS6pe;ATS7pe;ATS8pe;ATS0are;ATS1are;ATS2are;ATS3are;ATS4are;ATS5are;ATS6are;ATS7are;ATS8are;ATS0p;ATS1p;ATS2p;ATS3p;ATS4p;ATS5p;ATS6p;ATS7p;ATS8p;ATS0i;ATS1i;ATS2i;ATS3i;ATS4i;ATS5i;ATS6i;ATS7i;ATS8i;AATS0dv;AATS1dv;AATS2dv;AATS3dv;AATS0d;AATS1d;AATS2d;AATS3d;AATS0s;AATS1s;AATS2s;AATS3s;AATS0Z;AATS1Z;AATS2Z;AATS3Z;AATS0m;AATS1m;AATS2m;AATS3m;AATS0v;AATS1v;AATS2v;AATS3v;AATS0se;AATS1se;AATS2se;AATS3se;AATS0pe;AATS1pe;AATS2pe;AATS3pe;AATS0are;AATS1are;AATS2are;AATS3are;AATS0p;AATS1p;AATS2p;AATS3p;AATS0i;AATS1i;AATS2i;AATS3i;ATSC0c;ATSC1c;ATSC2c;ATSC3c;ATSC4c;ATSC5c;ATSC6c;ATSC7c;ATSC8c;ATSC0dv;ATSC1dv;ATSC2dv;ATSC3dv;ATSC4dv;ATSC5dv;ATSC6dv;ATSC7dv;ATSC8dv;ATSC0d;ATSC1d;ATSC2d;ATSC3d;ATSC4d;ATSC5d;ATSC6d;ATSC7d;ATSC8d;ATSC0s;ATSC1s;ATSC2s;ATSC3s;ATSC4s;ATSC5s;ATSC6s;ATSC7s;ATSC8s;ATSC0Z;ATSC1Z;ATSC2Z;ATSC3Z;ATSC4Z;ATSC5Z;ATSC6Z;ATSC7Z;ATSC8Z;ATSC0m;ATSC1m;ATSC2m;ATSC3m;ATSC4m;ATSC5m;ATSC6m;ATSC7m;ATSC8m;ATSC0v;ATSC1v;ATSC2v;ATSC3v;ATSC4v;ATSC5v;ATSC6v;ATSC7v;ATSC8v;ATSC0se;ATSC1se;ATSC2se;ATSC3se;ATSC4se;ATSC5se;ATSC6se;ATSC7se;ATSC8se;ATSC0pe;ATSC1pe;ATSC2pe;ATSC3pe;ATSC4pe;ATSC5pe;ATSC6pe;ATSC7pe;ATSC8pe;ATSC0are;ATSC1are;ATSC2are;ATSC3are;ATSC4are;ATSC5are;ATSC6are;ATSC7are;ATSC8are;ATSC0p;ATSC1p;ATSC2p;ATSC3p;ATSC4p;ATSC5p;ATSC6p;ATSC7p;ATSC8p;ATSC0i;ATSC1i;ATSC2i;ATSC3i;ATSC4i;ATSC5i;ATSC6i;ATSC7i;ATSC8i;AATSC0c;AATSC1c;AATSC2c;AATSC3c;AATSC0dv;AATSC1dv;AATSC2dv;AATSC3dv;AATSC0d;AATSC1d;AATSC2d;AATSC3d;AATSC0s;AATSC1s;AATSC2s;AATSC3s;AATSC0Z;AATSC1Z;AATSC2Z;AATSC3Z;AATSC0m;AATSC1m;AATSC2m;AATSC3m;AATSC0v;AATSC1v;AATSC2v;AATSC3v;AATSC0se;AATSC1se;AATSC2se;AATSC3se;AATSC0pe;AATSC1pe;AATSC2pe;AATSC3pe;AATSC0are;AATSC1are;AATSC2are;AATSC3are;AATSC0p;AATSC1p;AATSC2p;AATSC3p;AATSC0i;AATSC1i;AATSC2i;AATSC3i;MATS1c;MATS2c;MATS3c;MATS1dv;MATS2dv;MATS3dv;MATS1s;MATS2s;MATS3s;MATS1Z;MATS2Z;MATS3Z;MATS1m;MATS2m;MATS3m;MATS1v;MATS2v;MATS3v;MATS1se;MATS2se;MATS3se;MATS1pe;MATS2pe;MATS3pe;MATS1are;MATS2are;MATS3are;MATS1p;MATS2p;MATS3p;MATS1i;MATS2i;MATS3i;GATS1c;GATS2c;GATS3c;GATS1dv;GATS2dv;GATS3dv;GATS1s;GATS2s;GATS3s;GATS1Z;GATS2Z;GATS3Z;GATS1m;GATS2m;GATS3m;GATS1v;GATS2v;GATS3v;GATS1se;GATS2se;GATS3se;GATS1pe;GATS2pe;GATS3pe;GATS1are;GATS2are;GATS3are;GATS1p;GATS2p;GATS3p;GATS1i;GATS2i;GATS3i;BCUTc-1h;BCUTc-1l;BCUTdv-1h;BCUTdv-1l;BCUTd-1h;BCUTd-1l;BCUTs-1h;BCUTs-1l;BCUTZ-1h;BCUTZ-1l;BCUTm-1h;BCUTm-1l;BCUTv-1h;BCUTv-1l;BCUTse-1h;BCUTse-1l;BCUTpe-1h;BCUTpe-1l;BCUTare-1h;BCUTare-1l;BCUTp-1h;BCUTp-1l;BCUTi-1h;BCUTi-1l;BalabanJ;SpAbs_DzZ;SpMax_DzZ;SpDiam_DzZ;SpAD_DzZ;SpMAD_DzZ;LogEE_DzZ;VE1_DzZ;VE2_DzZ;VE3_DzZ;VR1_DzZ;VR2_DzZ;VR3_DzZ;SpAbs_Dzm;SpMax_Dzm;SpDiam_Dzm;SpAD_Dzm;SpMAD_Dzm;LogEE_Dzm;VE1_Dzm;VE2_Dzm;VE3_Dzm;VR1_Dzm;VR2_Dzm;VR3_Dzm;SpAbs_Dzv;SpMax_Dzv;SpDiam_Dzv;SpAD_Dzv;SpMAD_Dzv;LogEE_Dzv;VE1_Dzv;VE2_Dzv;VE3_Dzv;VR1_Dzv;VR2_Dzv;VR3_Dzv;SpAbs_Dzse;SpMax_Dzse;SpDiam_Dzse;SpAD_Dzse;SpMAD_Dzse;LogEE_Dzse;VE1_Dzse;VE2_Dzse;VE3_Dzse;VR1_Dzse;VR2_Dzse;VR3_Dzse;SpAbs_Dzpe;SpMax_Dzpe;SpDiam_Dzpe;SpAD_Dzpe;SpMAD_Dzpe;LogEE_Dzpe;VE1_Dzpe;VE2_Dzpe;VE3_Dzpe;VR1_Dzpe;VR2_Dzpe;VR3_Dzpe;SpAbs_Dzare;SpMax_Dzare;SpDiam_Dzare;SpAD_Dzare;SpMAD_Dzare;LogEE_Dzare;VE1_Dzare;VE2_Dzare;VE3_Dzare;VR1_Dzare;VR2_Dzare;VR3_Dzare;SpAbs_Dzp;SpMax_Dzp;SpDiam_Dzp;SpAD_Dzp;SpMAD_Dzp;LogEE_Dzp;VE1_Dzp;VE2_Dzp;VE3_Dzp;VR1_Dzp;VR2_Dzp;VR3_Dzp;SpAbs_Dzi;SpMax_Dzi;SpDiam_Dzi;SpAD_Dzi;SpMAD_Dzi;LogEE_Dzi;VE1_Dzi;VE2_Dzi;VE3_Dzi;VR1_Dzi;VR2_Dzi;VR3_Dzi;BertzCT;nBonds;nBondsO;nBondsS;nBondsKS;RNCG;RPCG;C1SP3;C2SP3;C3SP3;C4SP3;Xc-3d;Xc-4d;Xc-5d;Xc-6d;Xc-3dv;Xc-4dv;Xc-5dv;Xc-6dv;Xpc-4d;Xpc-5d;Xpc-6d;Xpc-4dv;Xpc-5dv;Xpc-6dv;Xp-0d;Xp-1d;Xp-2d;Xp-3d;Xp-4d;Xp-5d;Xp-6d;Xp-7d;AXp-0d;AXp-1d;Xp-0dv;Xp-1dv;Xp-2dv;Xp-3dv;Xp-4dv;Xp-5dv;Xp-6dv;Xp-7dv;AXp-0dv;AXp-1dv;SZ;Sm;Sv;Sse;Spe;Sare;Sp;Si;MZ;Mm;Mv;Mse;Mpe;Mare;Mp;Mi;SpAbs_D;SpMax_D;SpDiam_D;SpAD_D;SpMAD_D;LogEE_D;VE1_D;VE2_D;VE3_D;VR1_D;VR2_D;VR3_D;NsCH3;NssCH2;NsssCH;NssssC;SsCH3;SssCH2;SsssCH;SssssC;MAXsCH3;MINsCH3;ECIndex;ETA_alpha;ETA_shape_p;ETA_shape_y;ETA_shape_x;ETA_beta;AETA_beta;ETA_beta_s;AETA_beta_s;ETA_eta;AETA_eta;ETA_eta_L;AETA_eta_L;ETA_eta_R;AETA_eta_R;ETA_eta_RL;AETA_eta_RL;ETA_eta_B;AETA_eta_B;ETA_eta_BR;AETA_eta_BR;ETA_epsilon_1;ETA_epsilon_2;ETA_epsilon_3;ETA_epsilon_4;ETA_epsilon_5;ETA_dBeta;AETA_dBeta;ETA_psi_1;ETA_dPsi_B;fragCpx;IC0;IC1;IC2;IC3;IC4;IC5;TIC0;TIC1;TIC2;TIC3;TIC4;TIC5;SIC0;SIC1;SIC2;SIC3;SIC4;SIC5;BIC0;BIC1;BIC2;BIC3;BIC4;BIC5;CIC0;CIC1;CIC2;CIC3;CIC4;CIC5;MIC0;MIC1;MIC2;MIC3;MIC4;MIC5;ZMIC0;ZMIC1;ZMIC2;ZMIC3;ZMIC4;ZMIC5;Kier1;Lipinski;GhoseFilter;FilterItLogS;VMcGowan;LabuteASA;PEOE_VSA6;PEOE_VSA7;SMR_VSA4;SMR_VSA5;SlogP_VSA4;SlogP_VSA5;EState_VSA3;EState_VSA4;EState_VSA5;EState_VSA7;EState_VSA8;VSA_EState4;VSA_EState5;VSA_EState7;VSA_EState8;MDEC-11;MID;AMID;MID_C;AMID_C;MPC2;MPC3;MPC4;MPC5;MPC6;MPC7;MPC8;MPC9;MPC10;TMPC10;piPC1;piPC2;piPC3;piPC4;piPC5;piPC6;piPC7;piPC8;piPC9;piPC10;TpiPC10;apol;bpol;nRot;RotRatio;SLogP;SMR;GGI1;GGI2;GGI3;GGI4;GGI5;GGI6;GGI7;GGI8;GGI9;GGI10;JGI1;JGI2;JGI3;JGI4;JGI5;JGI6;JGI7;JGI8;JGI9;JGI10;JGT10;Diameter;Radius;TopoShapeIndex;PetitjeanIndex;Vabc;VAdjMat;MWC01;MWC02;MWC03;MWC04;MWC05;MWC06;MWC07;MWC08;MWC09;MWC10;TMWC10;SRW02;SRW04;SRW06;SRW08;SRW10;TSRW10;MW;AMW;WPath;WPol;Zagreb1;Zagreb2;mZagreb1;mZagreb2
154.0;CCCCC(C)CC(C)C;2,4-dimethyloctane;IXAVTTRPEXFVSX-UHFFFAOYSA-N;11.069267547469934;2.0697820827667037;4.1395641655334074;11.069267547469934;1.1069267547469934;3.1236568730042413;2.8727822820572433;0.28727822820572435;1.0552809964285543;33.53331541395446;3.353331541395446;3.512539434622271;32.0;10.0;22.0;10.0;38.0;37.0;34.0;29.0;21.0;13.0;7.0;2.0;0.0;60.0;71.0;128.0;134.0;141.0;104.0;90.0;57.0;27.0;50.55555555555556;60.166666666666664;94.27777777777777;122.58333333333333;123.25;109.66666666666666;95.33333333333333;60.0;39.0;382.0;456.0;580.0;581.0;530.0;437.0;297.0;185.0;87.0;1464.9946180000002;1564.733025;1870.5392259999996;1716.2906959999996;1592.3429839999997;1210.8558049999997;769.0853549999998;487.49332999999984;160.52601599999997;4919.011394973762;6335.857675895377;8633.553884985813;9337.974922794436;8613.894159397747;7379.0045193233345;5422.997997532298;3354.775021182898;1843.0955629101775;223.21136800000002;224.45254799999998;424.90007199999997;568.335392;624.0115519999999;503.008052;495.775596;309.563336;186.188544;171.505;181.9425;333.205;439.22;473.53999999999996;386.0525;371.9475;231.905;139.92000000000002;168.98000000000002;177.25;326.94000000000005;432.36;468.0;380.61;368.55;229.86;138.60000000000002;37.670483906678;49.59807482;72.863313017584;84.200923880621;80.17526316245001;69.152958020621;55.099344158205;34.06119458062099;20.031725292734997;5336.131905433478;4509.845254493801;9432.792615526585;13114.358856790823;15160.15897674525;11815.240502243421;12376.618554470806;7759.916288863821;4611.235352918535;1.1875;1.1935483870967742;0.5666666666666667;0.35802469135802467;1.875;2.2903225806451615;2.1333333333333333;1.654320987654321;1.5798611111111112;1.9408602150537633;1.5712962962962962;1.5133744855967077;11.9375;14.709677419354838;9.666666666666666;7.172839506172839;45.781081812500005;50.47525887096774;31.17565376666666;21.18877402469135;153.71910609293008;204.3825056740444;143.89256474976355;115.28364102215353;6.975355250000001;7.240404774193547;7.081667866666666;7.016486320987654;5.35953125;5.8691129032258065;5.553416666666666;5.422469135802469;5.280625000000001;5.717741935483871;5.449000000000001;5.337777777777778;1.1772026220836875;1.5999378974193548;1.2143885502930667;1.0395175787730988;166.7541220447962;145.4788791772194;157.21321025877643;161.90566489865213;0.045110796607989466;-0.0069088455808481875;-0.006917644101822762;-0.017980816376852695;0.015161716369349442;-0.01691230871912467;0.003563023030289275;0.006164317516989992;-0.008389138181242319;27.875;6.30859375;-11.140625;-6.12109375;-4.5234375;-8.09375;2.78125;-0.63671875;1.79296875;10.0;1.9375;-3.25;-1.9375;-3.375;-1.0;0.0;-0.1875;1.6875;3.8333333333333335;-1.7100694444444435;0.6319444444444452;-2.0260416666666665;2.114583333333333;-1.4999999999999996;-0.12500000000000058;1.2447916666666663;-1.328125;171.875;-11.81640625;-25.390625;-70.99609375;44.7265625;-74.21875;16.40625;19.23828125;-27.83203125;832.3288118749999;-57.22260581640611;-122.95766539062485;-343.8085489960936;216.5946567265624;-359.4147142187499;79.44956840624991;93.16407723828114;-134.78051783203125;1547.7509673946556;-106.40787900838225;-228.64502927421023;-639.3266780090423;402.7670131061092;-668.3470086476923;147.7398650694897;173.24257987315167;-250.63012824288472;0.1630474999999998;-0.011209515625000697;-0.024086562500000536;-0.06734973437500025;0.04242940625000023;-0.07040687500000002;0.015563625000000497;0.018250203125000322;-0.026402578124999805;0.8421874999999983;-0.05790039062500069;-0.12441406250000042;-0.3478808593749997;0.21916015624999985;-0.3636718749999994;0.08039062500000041;0.0942675781250002;-0.13637695312499953;0.6187499999999992;-0.0425390625000003;-0.09140625000000016;-0.25558593749999986;0.16101562499999997;-0.2671874999999998;0.059062500000000184;0.06925781250000008;-0.1001953124999998;6.919166958336874;-0.475692728385663;-1.0221496642997678;-2.8580877151766533;1.8005559471126653;-2.9878220956454693;0.6604659369321586;0.7744749379502087;-1.1204332858670498;37.58502473308684;-2.5839704503997742;-5.552333199206053;-15.525177830087596;9.7806484816783;-16.22989704383296;3.5876614517946908;4.20696015478304;-6.086211391437345;0.0014097123939996708;-0.0002228659864789738;-0.00011529406836371269;-0.0002219853873685518;0.87109375;0.20350302419354838;-0.18567708333333333;-0.07556905864197531;0.3125;0.0625;-0.05416666666666667;-0.023919753086419752;0.11979166666666667;-0.05516353046594979;0.01053240740740742;-0.025012860082304526;5.37109375;-0.3811743951612903;-0.4231770833333333;-0.8764949845679012;26.010275371093748;-1.8458905102066487;-2.049294423177081;-4.244549987606094;48.36721773108299;-3.432512226076847;-3.810750487903504;-7.892921950728917;0.005095234374999993;-0.00036159727822582895;-0.0004014427083333423;-0.0008314782021604969;0.026318359374999947;-0.001867754536290345;-0.0020735677083333405;-0.0042948254243827125;0.019335937499999976;-0.0013722278225806548;-0.0015234375000000027;-0.003155381944444443;0.2162239674480273;-0.015344926722118162;-0.017035827738329463;-0.03528503352069942;1.1745320229089637;-0.08335388549676691;-0.09253888665343422;-0.19166886209984688;-0.15809323052530802;-0.0817855250861472;-0.15746856473236315;0.23361782149573265;-0.21315396113602392;-0.08675192382217795;-0.4604955586722765;0.08792270531400975;-0.20880300590445516;-0.07096774193548387;-0.07878787878787878;-0.1631874298540965;-0.0709677419354837;-0.07878787878787871;-0.16318742985409646;-0.07096774193548366;-0.0787878787878787;-0.16318742985409648;-0.07096774193548838;-0.07878787878788064;-0.16318742985409732;-0.07096774193548486;-0.07878787878787921;-0.1631874298540967;-0.07096774193548445;-0.07878787878787902;-0.16318742985409665;-0.07096774193548432;-0.07878787878787898;-0.1631874298540966;-0.07096774193548536;-0.07878787878787939;-0.16318742985409676;1.6874550196318114;1.1837882615336512;1.2106759848905992;1.399103139013453;1.8720478325859493;1.1258373470630572;2.0724637681159424;0.7712560386473428;1.2147074610842727;1.6;1.2775757575757576;1.2246913580246914;1.6000000000000003;1.277575757575758;1.2246913580246916;1.6000000000000005;1.2775757575757578;1.2246913580246914;1.6;1.2775757575757576;1.2246913580246912;1.6;1.2775757575757576;1.2246913580246914;1.6000000000000003;1.2775757575757578;1.2246913580246916;1.6;1.2775757575757578;1.2246913580246916;1.5999999999999999;1.2775757575757571;1.2246913580246912;0.21506183527427444;-0.21657353986545383;3.034666134052718;0.9871397835219818;3.034666134052718;0.9871397835219818;2.037348808367294;1.217501659886799;6.218706255647214;5.787886948526998;12.229706255647212;11.798886948526984;20.79823253176273;20.367413224642505;2.9647062556472026;2.5338869485269924;2.768706255647212;2.337886948526998;2.7187062556472066;2.2878869485269937;1.888706255647212;1.4578869485269954;11.479006255647214;11.048186948527015;3.1600355763973464;59.057971891626835;29.528985945813425;45.08898060061558;59.05797189162685;5.905797189162685;29.52898594581397;3.109521688106563;0.3109521688106563;1.134468916326537;31.5182647203533;3.15182647203533;3.450567210185907;59.057971891626835;29.528985945813425;45.08898060061558;59.05797189162685;5.905797189162685;29.52898594581397;3.109521688106563;0.3109521688106563;1.134468916326537;31.5182647203533;3.15182647203533;3.450567210185907;59.057971891626835;29.528985945813425;45.08898060061558;59.05797189162685;5.905797189162685;29.52898594581397;3.109521688106563;0.3109521688106563;1.134468916326537;31.5182647203533;3.15182647203533;3.450567210185907;59.057971891626835;29.528985945813425;45.08898060061558;59.05797189162685;5.905797189162685;29.52898594581397;3.109521688106563;0.3109521688106563;1.134468916326537;31.5182647203533;3.15182647203533;3.450567210185907;59.057971891626835;29.528985945813425;45.08898060061558;59.05797189162685;5.905797189162685;29.52898594581397;3.109521688106563;0.3109521688106563;1.134468916326537;31.5182647203533;3.15182647203533;3.450567210185907;59.057971891626835;29.528985945813425;45.08898060061558;59.05797189162685;5.905797189162685;29.52898594581397;3.109521688106563;0.3109521688106563;1.134468916326537;31.5182647203533;3.15182647203533;3.450567210185907;59.057971891626835;29.528985945813425;45.08898060061558;59.05797189162685;5.905797189162685;29.52898594581397;3.109521688106563;0.3109521688106563;1.134468916326537;31.5182647203533;3.15182647203533;3.450567210185907;59.057971891626835;29.528985945813425;45.08898060061558;59.05797189162685;5.905797189162685;29.52898594581397;3.109521688106563;0.3109521688106563;1.134468916326537;31.5182647203533;3.15182647203533;3.450567210185907;64.43856189774723;31.0;9.0;31.0;31.0;0.1182545020157425;0.05425029485827915;4.0;4.0;2.0;0.0;0.6969234250586759;0.0;0.0;0.0;0.6969234250586759;0.0;0.0;0.0;0.606493072294114;0.99789095789068;0.7478909578906802;0.606493072294114;0.99789095789068;0.7478909578906802;7.983127663125442;4.663902460147014;3.876949351223493;1.9242502635051641;1.4751748420833926;0.6674973062581872;0.25;0.16666666666666666;0.7983127663125442;0.5182113844607793;7.983127663125442;4.663902460147014;3.876949351223493;1.9242502635051641;1.4751748420833926;0.6674973062581872;0.25;0.16666666666666666;0.7983127663125442;0.5182113844607793;13.666666666666668;11.846307551411208;15.96010584164462;30.766205389657685;28.98039215686275;29.360000000000003;18.784099401197608;36.568186105165935;0.42708333333333337;0.37019711098160024;0.49875330755139435;0.9614439184268027;0.9056372549019609;0.9175000000000001;0.5870031062874252;1.1427558157864355;59.057971891626835;29.528985945813425;45.08898060061558;59.05797189162685;5.905797189162685;29.52898594581397;3.109521688106563;0.3109521688106563;1.134468916326537;31.5182647203533;3.15182647203533;3.450567210185907;4.0;4.0;2.0;0.0;9.252624716553289;5.588295540438398;1.825746409674981;0.0;2.3706944444444447;2.265966553287982;96.0;5.0;0.4;0.2;0.0;4.5;0.45;4.5;0.45;12.015332252217938;1.2015332252217938;4.663902460147014;0.4663902460147014;12.015332252217938;1.2015332252217938;4.663902460147014;0.4663902460147014;0.2503111022260809;0.025031110222608087;0.2503111022260809;0.025031110222608087;0.425;0.7;0.425;0.425;0.7;-4.5;-0.45;0.7142857142857143;0.00028571428571433355;9.0;0.8960382325345574;1.3716407621868583;2.6945488277869583;3.6473683589017414;3.9056390622295662;3.9056390622295662;28.673223441105836;43.892504389979464;86.22556248918266;116.71578748485572;124.98044999134612;124.98044999134612;0.17920764650691148;0.27432815243737163;0.5389097655573917;0.7294736717803483;0.7811278124459132;0.7811278124459132;0.1808644987797396;0.2768644349661926;0.5438922196396654;0.736217971672769;0.788349677230407;0.788349677230407;4.103961767465442;3.6283592378131417;2.3054511722130417;1.3526316410982586;1.0943609377704338;1.0943609377704338;6.673151904630568;12.385613888284354;18.27335436883723;20.181047305772953;20.4413841747274;20.4413841747274;39.639944988972836;29.17609676811088;23.193044526787848;18.405356636771323;17.45037578003305;17.45037578003305;10.0;1.0;0.0;-3.119502638111995;151.76000000000002;66.02373005739902;46.95741366754052;18.256633715248796;11.835812092322787;53.378235290466534;11.835812092322787;53.378235290466534;0.0;11.835812092322787;25.683286491704038;0.0;27.694948798762496;0.0;1.825746409674981;5.588295540438398;9.252624716553289;1.346165863147035;18.487238068780606;1.8487238068780605;18.487238068780606;1.8487238068780605;10.0;8.0;8.0;5.0;3.0;2.0;0.0;0.0;0.0;55.0;2.302585092994046;2.3978952727983707;2.1972245773362196;2.1972245773362196;1.791759469228055;1.3862943611198906;1.0986122886681098;0.0;0.0;0.0;4.02535169073515;31.369446;22.070553999999998;5.0;0.5555555555555556;3.858800000000003;48.14400000000003;2.5;0.666666666666667;0.625;0.24000000000000005;0.1111111111111111;0.0816326530612245;0.0;0.0;0.0;0.0;0.2777777777777778;0.06666666666666671;0.078125;0.030000000000000006;0.02222222222222222;0.0272108843537415;0.0;0.0;0.0;0.0;0.5020025510204081;7.0;4.0;0.75;0.42857142857142855;181.5163111863147;4.169925001442312;9.0;3.6635616461296463;4.31748811353631;5.0689042022202315;5.746203190540153;6.505784060128229;7.192182058713246;7.953318346560431;8.643825842349603;9.404837504700271;77.49610496487811;2.9444389791664403;4.07753744390572;5.351858133476067;6.698268054115413;8.0861025356691;37.15820514633274;142.172150704;4.4428797095;142.0;8.0;38.0;37.0;5.222222222222222;2.5000000000000004