boiling_point;SMILES;IUPAC_name;InChIKey;SpAbs_A;SpMax_A;SpDiam_A;SpAD_A;SpMAD_A;LogEE_A;VE1_A;VE2_A;VE3_A;VR1_A;VR2_A;VR3_A;nAtom;nHeavyAtom;nH;nC;ATS0dv;ATS1dv;ATS2dv;ATS3dv;ATS4dv;ATS5dv;ATS6dv;ATS7dv;ATS8dv;ATS0d;ATS1d;ATS2d;ATS3d;ATS4d;ATS5d;ATS6d;ATS7d;ATS8d;ATS0s;ATS1s;ATS2s;ATS3s;ATS4s;ATS5s;ATS6s;ATS7s;ATS8s;ATS0Z;ATS1Z;ATS2Z;ATS3Z;ATS4Z;ATS5Z;ATS6Z;ATS7Z;ATS8Z;ATS0m;ATS1m;ATS2m;ATS3m;ATS4m;ATS5m;ATS6m;ATS7m;ATS8m;ATS0v;ATS1v;ATS2v;ATS3v;ATS4v;ATS5v;ATS6v;ATS7v;ATS8v;ATS0se;ATS1se;ATS2se;ATS3se;ATS4se;ATS5se;ATS6se;ATS7se;ATS8se;ATS0pe;ATS1pe;ATS2pe;ATS3pe;ATS4pe;ATS5pe;ATS6pe;ATS7pe;ATS8pe;ATS0are;ATS1are;ATS2are;ATS3are;ATS4are;ATS5are;ATS6are;ATS7are;ATS8are;ATS0p;ATS1p;ATS2p;ATS3p;ATS4p;ATS5p;ATS6p;ATS7p;ATS8p;ATS0i;ATS1i;ATS2i;ATS3i;ATS4i;ATS5i;ATS6i;ATS7i;ATS8i;AATS0dv;AATS1dv;AATS2dv;AATS3dv;AATS0d;AATS1d;AATS2d;AATS3d;AATS0s;AATS1s;AATS2s;AATS3s;AATS0Z;AATS1Z;AATS2Z;AATS3Z;AATS0m;AATS1m;AATS2m;AATS3m;AATS0v;AATS1v;AATS2v;AATS3v;AATS0se;AATS1se;AATS2se;AATS3se;AATS0pe;AATS1pe;AATS2pe;AATS3pe;AATS0are;AATS1are;AATS2are;AATS3are;AATS0p;AATS1p;AATS2p;AATS3p;AATS0i;AATS1i;AATS2i;AATS3i;ATSC0c;ATSC1c;ATSC2c;ATSC3c;ATSC4c;ATSC5c;ATSC6c;ATSC7c;ATSC8c;ATSC0dv;ATSC1dv;ATSC2dv;ATSC3dv;ATSC4dv;ATSC5dv;ATSC6dv;ATSC7dv;ATSC8dv;ATSC0d;ATSC1d;ATSC2d;ATSC3d;ATSC4d;ATSC5d;ATSC6d;ATSC7d;ATSC8d;ATSC0s;ATSC1s;ATSC2s;ATSC3s;ATSC4s;ATSC5s;ATSC6s;ATSC7s;ATSC8s;ATSC0Z;ATSC1Z;ATSC2Z;ATSC3Z;ATSC4Z;ATSC5Z;ATSC6Z;ATSC7Z;ATSC8Z;ATSC0m;ATSC1m;ATSC2m;ATSC3m;ATSC4m;ATSC5m;ATSC6m;ATSC7m;ATSC8m;ATSC0v;ATSC1v;ATSC2v;ATSC3v;ATSC4v;ATSC5v;ATSC6v;ATSC7v;ATSC8v;ATSC0se;ATSC1se;ATSC2se;ATSC3se;ATSC4se;ATSC5se;ATSC6se;ATSC7se;ATSC8se;ATSC0pe;ATSC1pe;ATSC2pe;ATSC3pe;ATSC4pe;ATSC5pe;ATSC6pe;ATSC7pe;ATSC8pe;ATSC0are;ATSC1are;ATSC2are;ATSC3are;ATSC4are;ATSC5are;ATSC6are;ATSC7are;ATSC8are;ATSC0p;ATSC1p;ATSC2p;ATSC3p;ATSC4p;ATSC5p;ATSC6p;ATSC7p;ATSC8p;ATSC0i;ATSC1i;ATSC2i;ATSC3i;ATSC4i;ATSC5i;ATSC6i;ATSC7i;ATSC8i;AATSC0c;AATSC1c;AATSC2c;AATSC3c;AATSC0dv;AATSC1dv;AATSC2dv;AATSC3dv;AATSC0d;AATSC1d;AATSC2d;AATSC3d;AATSC0s;AATSC1s;AATSC2s;AATSC3s;AATSC0Z;AATSC1Z;AATSC2Z;AATSC3Z;AATSC0m;AATSC1m;AATSC2m;AATSC3m;AATSC0v;AATSC1v;AATSC2v;AATSC3v;AATSC0se;AATSC1se;AATSC2se;AATSC3se;AATSC0pe;AATSC1pe;AATSC2pe;AATSC3pe;AATSC0are;AATSC1are;AATSC2are;AATSC3are;AATSC0p;AATSC1p;AATSC2p;AATSC3p;AATSC0i;AATSC1i;AATSC2i;AATSC3i;MATS1c;MATS2c;MATS3c;MATS1dv;MATS2dv;MATS3dv;MATS1s;MATS2s;MATS3s;MATS1Z;MATS2Z;MATS3Z;MATS1m;MATS2m;MATS3m;MATS1v;MATS2v;MATS3v;MATS1se;MATS2se;MATS3se;MATS1pe;MATS2pe;MATS3pe;MATS1are;MATS2are;MATS3are;MATS1p;MATS2p;MATS3p;MATS1i;MATS2i;MATS3i;GATS1c;GATS2c;GATS3c;GATS1dv;GATS2dv;GATS3dv;GATS1s;GATS2s;GATS3s;GATS1Z;GATS2Z;GATS3Z;GATS1m;GATS2m;GATS3m;GATS1v;GATS2v;GATS3v;GATS1se;GATS2se;GATS3se;GATS1pe;GATS2pe;GATS3pe;GATS1are;GATS2are;GATS3are;GATS1p;GATS2p;GATS3p;GATS1i;GATS2i;GATS3i;BCUTc-1h;BCUTc-1l;BCUTdv-1h;BCUTdv-1l;BCUTd-1h;BCUTd-1l;BCUTs-1h;BCUTs-1l;BCUTZ-1h;BCUTZ-1l;BCUTm-1h;BCUTm-1l;BCUTv-1h;BCUTv-1l;BCUTse-1h;BCUTse-1l;BCUTpe-1h;BCUTpe-1l;BCUTare-1h;BCUTare-1l;BCUTp-1h;BCUTp-1l;BCUTi-1h;BCUTi-1l;BalabanJ;SpAbs_DzZ;SpMax_DzZ;SpDiam_DzZ;SpAD_DzZ;SpMAD_DzZ;LogEE_DzZ;VE1_DzZ;VE2_DzZ;VE3_DzZ;VR1_DzZ;VR2_DzZ;VR3_DzZ;SpAbs_Dzm;SpMax_Dzm;SpDiam_Dzm;SpAD_Dzm;SpMAD_Dzm;LogEE_Dzm;VE1_Dzm;VE2_Dzm;VE3_Dzm;VR1_Dzm;VR2_Dzm;VR3_Dzm;SpAbs_Dzv;SpMax_Dzv;SpDiam_Dzv;SpAD_Dzv;SpMAD_Dzv;LogEE_Dzv;VE1_Dzv;VE2_Dzv;VE3_Dzv;VR1_Dzv;VR2_Dzv;VR3_Dzv;SpAbs_Dzse;SpMax_Dzse;SpDiam_Dzse;SpAD_Dzse;SpMAD_Dzse;LogEE_Dzse;VE1_Dzse;VE2_Dzse;VE3_Dzse;VR1_Dzse;VR2_Dzse;VR3_Dzse;SpAbs_Dzpe;SpMax_Dzpe;SpDiam_Dzpe;SpAD_Dzpe;SpMAD_Dzpe;LogEE_Dzpe;VE1_Dzpe;VE2_Dzpe;VE3_Dzpe;VR1_Dzpe;VR2_Dzpe;VR3_Dzpe;SpAbs_Dzare;SpMax_Dzare;SpDiam_Dzare;SpAD_Dzare;SpMAD_Dzare;LogEE_Dzare;VE1_Dzare;VE2_Dzare;VE3_Dzare;VR1_Dzare;VR2_Dzare;VR3_Dzare;SpAbs_Dzp;SpMax_Dzp;SpDiam_Dzp;SpAD_Dzp;SpMAD_Dzp;LogEE_Dzp;VE1_Dzp;VE2_Dzp;VE3_Dzp;VR1_Dzp;VR2_Dzp;VR3_Dzp;SpAbs_Dzi;SpMax_Dzi;SpDiam_Dzi;SpAD_Dzi;SpMAD_Dzi;LogEE_Dzi;VE1_Dzi;VE2_Dzi;VE3_Dzi;VR1_Dzi;VR2_Dzi;VR3_Dzi;BertzCT;nBonds;nBondsO;nBondsS;nBondsKS;RNCG;RPCG;C1SP3;C2SP3;C3SP3;C4SP3;Xc-3d;Xc-4d;Xc-5d;Xc-6d;Xc-3dv;Xc-4dv;Xc-5dv;Xc-6dv;Xpc-4d;Xpc-5d;Xpc-6d;Xpc-4dv;Xpc-5dv;Xpc-6dv;Xp-0d;Xp-1d;Xp-2d;Xp-3d;Xp-4d;Xp-5d;Xp-6d;Xp-7d;AXp-0d;AXp-1d;Xp-0dv;Xp-1dv;Xp-2dv;Xp-3dv;Xp-4dv;Xp-5dv;Xp-6dv;Xp-7dv;AXp-0dv;AXp-1dv;SZ;Sm;Sv;Sse;Spe;Sare;Sp;Si;MZ;Mm;Mv;Mse;Mpe;Mare;Mp;Mi;SpAbs_D;SpMax_D;SpDiam_D;SpAD_D;SpMAD_D;LogEE_D;VE1_D;VE2_D;VE3_D;VR1_D;VR2_D;VR3_D;NsCH3;NssCH2;NsssCH;NssssC;SsCH3;SssCH2;SsssCH;SssssC;MAXsCH3;MINsCH3;ECIndex;ETA_alpha;ETA_shape_p;ETA_shape_y;ETA_shape_x;ETA_beta;AETA_beta;ETA_beta_s;AETA_beta_s;ETA_eta;AETA_eta;ETA_eta_L;AETA_eta_L;ETA_eta_R;AETA_eta_R;ETA_eta_RL;AETA_eta_RL;ETA_eta_B;AETA_eta_B;ETA_eta_BR;AETA_eta_BR;ETA_epsilon_1;ETA_epsilon_2;ETA_epsilon_3;ETA_epsilon_4;ETA_epsilon_5;ETA_dBeta;AETA_dBeta;ETA_psi_1;ETA_dPsi_B;fragCpx;IC0;IC1;IC2;IC3;IC4;IC5;TIC0;TIC1;TIC2;TIC3;TIC4;TIC5;SIC0;SIC1;SIC2;SIC3;SIC4;SIC5;BIC0;BIC1;BIC2;BIC3;BIC4;BIC5;CIC0;CIC1;CIC2;CIC3;CIC4;CIC5;MIC0;MIC1;MIC2;MIC3;MIC4;MIC5;ZMIC0;ZMIC1;ZMIC2;ZMIC3;ZMIC4;ZMIC5;Kier1;Lipinski;GhoseFilter;FilterItLogS;VMcGowan;LabuteASA;PEOE_VSA6;PEOE_VSA7;SMR_VSA4;SMR_VSA5;SlogP_VSA4;SlogP_VSA5;EState_VSA3;EState_VSA4;EState_VSA5;EState_VSA7;EState_VSA8;VSA_EState4;VSA_EState5;VSA_EState7;VSA_EState8;MDEC-11;MID;AMID;MID_C;AMID_C;MPC2;MPC3;MPC4;MPC5;MPC6;MPC7;MPC8;MPC9;MPC10;TMPC10;piPC1;piPC2;piPC3;piPC4;piPC5;piPC6;piPC7;piPC8;piPC9;piPC10;TpiPC10;apol;bpol;nRot;RotRatio;SLogP;SMR;GGI1;GGI2;GGI3;GGI4;GGI5;GGI6;GGI7;GGI8;GGI9;GGI10;JGI1;JGI2;JGI3;JGI4;JGI5;JGI6;JGI7;JGI8;JGI9;JGI10;JGT10;Diameter;Radius;TopoShapeIndex;PetitjeanIndex;Vabc;VAdjMat;MWC01;MWC02;MWC03;MWC04;MWC05;MWC06;MWC07;MWC08;MWC09;MWC10;TMWC10;SRW02;SRW04;SRW06;SRW08;SRW10;TSRW10;MW;AMW;WPath;WPol;Zagreb1;Zagreb2;mZagreb1;mZagreb2
135.0;CC(C)CCCC(C)C;2,6-dimethylheptane;KBPCCVWUMVGXGF-UHFFFAOYSA-N;9.464101615137753;1.9999999999999991;3.9999999999999982;9.464101615137753;1.0515668461264172;3.0174794566298857;2.857738033247041;0.3175264481385601;0.9446698987834595;23.65436543168373;2.6282628257426364;3.058187167095635;29.0;9.0;20.0;9.0;34.0;32.0;26.0;20.0;17.0;12.0;4.0;0.0;0.0;54.0;62.0;113.0;112.0;115.0;78.0;69.0;36.0;36.0;46.30555555555556;54.83333333333333;85.58333333333333;112.33333333333333;106.11111111111111;75.33333333333333;65.0;60.0;36.0;344.0;408.0;519.0;492.0;386.0;304.0;265.0;156.0;36.0;1318.6983689999995;1396.2547279999994;1676.830689;1398.4679579999997;1086.908093;871.8622119999998;796.1714919999998;302.76288;36.578304;4433.327004362572;5682.867541405011;7720.00677332348;8106.049164400087;6654.923755926646;5088.618011214776;4306.9470796988735;3126.6837260636103;1119.0147995134894;202.2339240000001;202.676768;382.170564;505.426776;558.6842119999999;374.86696;312.00577599999997;251.444736;241.86470400000002;155.32250000000002;164.22;299.4225;390.795;420.37250000000006;284.95000000000005;236.77;192.72;174.24;153.05;160.0;293.85;384.66;416.25;281.52000000000004;234.0;190.08;174.24;33.992358096980006;44.5820862;65.175622872735;74.172970736376;65.12729730245;48.10273615577201;40.087631581225;32.060418298188004;16.006064574564;4839.50224529498;4076.805802978;8508.590416560735;11629.936789063779;13861.040622197852;9053.567730722772;7580.079488372626;5893.952969400589;6657.0354728729635;1.1724137931034482;1.1428571428571428;0.48148148148148145;0.2777777777777778;1.8620689655172413;2.2142857142857144;2.0925925925925926;1.5555555555555556;1.5967432950191571;1.9583333333333333;1.5848765432098764;1.5601851851851851;11.862068965517242;14.571428571428571;9.61111111111111;6.833333333333333;45.47235755172412;49.86624028571426;31.052420166666664;19.423166083333328;152.8733449780197;202.95955505017898;142.96308839487926;112.58401617222343;6.9735835862068996;7.238456;7.077232666666667;7.019816333333334;5.35594827586207;5.865;5.5448611111111115;5.427708333333333;5.277586206896552;5.714285714285714;5.441666666666667;5.3425;1.172150279206207;1.5922173642857143;1.2069559791247224;1.0301801491163334;166.8793877687924;145.6002072492143;157.56648919556918;161.52689984810803;0.040793884777457545;-0.006639297526826456;-0.002933033537667505;-0.023666850957845258;0.009650640950948553;-0.0006185308374795778;0.01106037512317566;-0.02680727112484365;0.019557025521809466;25.172413793103445;5.2128418549346005;-13.838287752675384;-7.738406658739596;5.242568370986918;-1.355529131985731;-8.784780023781211;-2.2829964328180736;10.958382877526756;9.310344827586206;0.8727705112960753;-4.888228299643282;-0.49464922711058285;1.478002378121285;-2.646848989298455;-3.171224732461356;2.097502972651606;2.097502972651606;3.6609195402298855;-1.81245871317215;1.2836900515259613;-2.4914783987316684;0.8829105562161449;-0.47780420134760215;2.6324811732065;-3.4756242568370985;1.6278240190249704;155.17241379310346;-11.890606420927488;-17.390011890606445;-95.60047562425686;40.725326991676596;-2.734839476813306;22.14625445897741;-99.52437574316289;86.68252080856126;751.4441937931032;-57.58193055885832;-84.21357344233037;-462.9587216932222;197.2181121640902;-13.24384402853751;107.24634566587389;-481.96075877764554;419.77227377407814;1397.342566174485;-107.07605871068867;-156.5987358643822;-860.8915120339359;366.7355010841083;-24.62749350345834;199.42915934865738;-896.2266114084632;780.5844680009196;0.14720275862068946;-0.01127990487514695;-0.016496860879903555;-0.09069043519619407;0.03863367419738274;-0.002594378121284494;0.021008822829963955;-0.0944128038049938;0.08223050653983144;0.7603448275862053;-0.05826397146254694;-0.08521105826397327;-0.46844233055885887;0.19955410225921671;-0.01340071343638477;0.1085166468489896;-0.48766944114149746;0.42474435196195215;0.5586206896551719;-0.04280618311534082;-0.06260404280618458;-0.34416171224732517;0.146611177170037;-0.009845422116527572;0.07972651605231897;-0.3582877526753862;0.31205707491082246;6.246771423200688;-0.47867980254411097;-0.7000692112207643;-3.8485856124546762;1.6394783237135881;-0.11009635458514677;0.8915411322384119;-4.006549947294235;3.4895757605465882;33.932561514511;-2.60019628463705;-3.802787066281555;-20.905578128480435;8.905672274881388;-0.5980451454664406;4.8428655801361895;-21.76364290241052;18.955430915002925;0.0014066856819812948;-0.0002371177688152306;-5.431543588273157e-05;-0.0003287062633034064;0.868014268727705;0.18617292339052144;-0.2562645880125071;-0.10747787026027217;0.3210463733650416;0.03117037540343126;-0.09052274628969041;-0.006870128154313651;0.1262386048355133;-0.06473066832757678;0.023772037991221504;-0.03460386664905095;5.35077288941736;-0.4246645150331246;-0.32203725723345267;-1.327784383670234;25.911868751486317;-2.0564975199592257;-1.5595106193024142;-6.429982245739197;48.184226419809825;-3.8241449539531667;-2.899976590081152;-11.956826556026888;0.005075957193816878;-0.0004028537455409625;-0.0003054974237019177;-0.0012595893777249177;0.026218787158145008;-0.002080856123662391;-0.0015779825604439494;-0.006506143479984151;0.01926278240190248;-0.001528792254119315;-0.0011593341260404551;-0.004780023781212849;0.2154059111448513;-0.017095707233718248;-0.012964244652236376;-0.05345257795075939;1.1700883280865861;-0.09286415302275178;-0.07042198270891768;-0.2903552517844505;-0.16856485556976308;-0.03861234714938531;-0.2336742795593318;0.21448140900195692;-0.2952308472856418;-0.12382039573820398;-0.5127644464379159;0.18831036688179542;-0.27411477411477403;-0.0793650793650795;-0.06018518518518526;-0.24814814814814817;-0.07936507936507914;-0.060185185185185064;-0.24814814814814815;-0.07936507936507949;-0.060185185185185286;-0.24814814814814823;-0.07936507936506763;-0.06018518518518044;-0.24814814814814595;-0.07936507936508275;-0.06018518518518659;-0.24814814814814887;-0.07936507936508304;-0.060185185185186646;-0.24814814814814878;-0.07936507936507886;-0.06018518518518498;-0.24814814814814812;-0.07936507936508522;-0.06018518518518755;-0.24814814814814928;1.6992918604512104;1.1367117739089376;1.335045844316183;1.4301369863013702;1.9980720446473874;1.0350837138508373;2.124542124542124;0.6609686609686608;1.3809523809523807;1.6111111111111112;1.2530864197530864;1.3157407407407409;1.6111111111111116;1.2530864197530869;1.3157407407407413;1.6111111111111116;1.2530864197530869;1.3157407407407409;1.6111111111111116;1.2530864197530867;1.3157407407407409;1.6111111111111112;1.2530864197530869;1.3157407407407409;1.6111111111111107;1.253086419753086;1.3157407407407404;1.6111111111111114;1.2530864197530867;1.3157407407407409;1.611111111111111;1.2530864197530867;1.3157407407407409;0.20902950249098123;-0.21032313277591458;3.0234581698213527;0.9871319480826687;3.0234581698213527;0.9871319480826687;2.039343599407569;1.245454038398114;6.212593211441901;5.79401160857754;12.223593211441909;11.805011608577534;20.792119487557425;20.373537884693068;2.958593211441903;2.5400116085775406;2.7625932114418994;2.3440116085775373;2.7125932114418996;2.294011608577537;1.8825932114419013;1.4640116085775359;11.472893211441892;11.054311608577539;2.914658625512464;49.57914533931738;24.789572669658693;39.15799292805505;49.57914533931739;5.508793926590822;24.78957266971565;2.9574951862522414;0.32861057625024903;0.9789821735704226;26.272713949623736;2.9191904388470817;3.1631703925483596;49.57914533931738;24.789572669658693;39.15799292805505;49.57914533931739;5.508793926590822;24.78957266971565;2.9574951862522414;0.32861057625024903;0.9789821735704226;26.272713949623736;2.9191904388470817;3.1631703925483596;49.57914533931738;24.789572669658693;39.15799292805505;49.57914533931739;5.508793926590822;24.78957266971565;2.9574951862522414;0.32861057625024903;0.9789821735704226;26.272713949623736;2.9191904388470817;3.1631703925483596;49.57914533931738;24.789572669658693;39.15799292805505;49.57914533931739;5.508793926590822;24.78957266971565;2.9574951862522414;0.32861057625024903;0.9789821735704226;26.272713949623736;2.9191904388470817;3.1631703925483596;49.57914533931738;24.789572669658693;39.15799292805505;49.57914533931739;5.508793926590822;24.78957266971565;2.9574951862522414;0.32861057625024903;0.9789821735704226;26.272713949623736;2.9191904388470817;3.1631703925483596;49.57914533931738;24.789572669658693;39.15799292805505;49.57914533931739;5.508793926590822;24.78957266971565;2.9574951862522414;0.32861057625024903;0.9789821735704226;26.272713949623736;2.9191904388470817;3.1631703925483596;49.57914533931738;24.789572669658693;39.15799292805505;49.57914533931739;5.508793926590822;24.78957266971565;2.9574951862522414;0.32861057625024903;0.9789821735704226;26.272713949623736;2.9191904388470817;3.1631703925483596;49.57914533931738;24.789572669658693;39.15799292805505;49.57914533931739;5.508793926590822;24.78957266971565;2.9574951862522414;0.32861057625024903;0.9789821735704226;26.272713949623736;2.9191904388470817;3.1631703925483596;45.058650025961626;28.0;8.0;28.0;28.0;0.1255202627985645;0.05939091101393415;4.0;3.0;2.0;0.0;0.816496580927726;0.0;0.0;0.0;0.816496580927726;0.0;0.0;0.0;0.5773502691896257;0.408248290463863;0.23570226039551584;0.5773502691896257;0.408248290463863;0.23570226039551584;7.276020881938894;4.125897657686229;3.7185973600176037;1.5629488288431146;0.9343477111254841;0.4714045207910317;0.4714045207910317;0.0;0.8084467646598772;0.5157372072107786;7.276020881938894;4.125897657686229;3.7185973600176037;1.5629488288431146;0.9343477111254841;0.4714045207910317;0.4714045207910317;0.0;0.8084467646598772;0.5157372072107786;12.33333333333333;10.678461410373828;14.418278037858745;27.87836853605244;26.254901960784316;26.599999999999998;16.985544910179645;33.15289645924176;0.425287356321839;0.3682228072542699;0.49718200130547396;0.9613230529673256;0.9053414469235971;0.9172413793103448;0.5857084451786084;1.1432033261807504;49.57914533931738;24.789572669658693;39.15799292805505;49.57914533931739;5.508793926590822;24.78957266971565;2.9574951862522414;0.32861057625024903;0.9789821735704226;26.272713949623736;2.9191904388470817;3.1631703925483596;4.0;3.0;2.0;0.0;9.167962962962964;4.213981481481482;1.7847222222222219;0.0;2.291990740740741;2.291990740740741;76.0;4.5;0.4444444444444444;0.2222222222222222;0.0;4.0;0.4444444444444444;4.0;0.4444444444444444;10.332321075619408;1.1480356750688232;4.125897657686229;0.4584330730762477;10.332321075619408;1.1480356750688232;4.125897657686229;0.4584330730762477;0.28831590468686574;0.03203510052076286;0.28831590468686574;0.03203510052076286;0.4241379310344827;0.7;0.4241379310344827;0.4241379310344827;0.7;-4.0;-0.4444444444444444;0.7142857142857143;0.00028571428571433355;8.0;0.8935711016541907;1.3685517054754786;2.3569697877834064;2.5469620293119215;2.5469620293119215;2.5469620293119215;25.91356194797153;39.68799945878888;68.35212384571878;73.86189885004572;73.86189885004572;73.86189885004572;0.18393878085369605;0.28171203363045266;0.48517476502015666;0.5242840661308593;0.5242840661308593;0.5242840661308593;0.18587583320595183;0.28467873241398256;0.49028412214145317;0.5298052818246655;0.5298052818246655;0.5298052818246655;3.9644098934733814;3.4894292896520933;2.5010112073441655;2.3110189658156504;2.3110189658156504;2.3110189658156504;6.664965218283638;12.369957250781123;14.41152499451664;14.603037173977384;14.603037173977384;14.603037173977384;35.68332320783173;26.142133731356516;26.52663456009659;25.81390883954212;25.81390883954212;25.81390883954212;9.0;1.0;0.0;-2.7006147003950467;137.67000000000004;59.6587879430024;46.95741366754052;11.835812092322787;11.835812092322787;46.95741366754052;11.835812092322787;46.95741366754052;0.0;11.835812092322787;19.26246486877803;0.0;27.694948798762496;0.0;1.7847222222222219;4.213981481481482;9.167962962962964;1.4422495703074083;16.498299849904463;1.8331444277671625;16.498299849904463;1.8331444277671625;9.0;6.0;5.0;4.0;4.0;0.0;0.0;0.0;0.0;45.0;2.1972245773362196;2.302585092994046;1.9459101490553132;1.791759469228055;1.6094379124341003;1.6094379124341003;0.0;0.0;0.0;0.0;3.828641396489095;28.365859999999998;20.06414;4.0;0.5;3.468700000000003;43.52700000000001;2.5;0.666666666666667;0.375;0.16000000000000003;0.2222222222222222;0.0;0.0;0.0;0.0;0.0;0.3125;0.07407407407407411;0.06249999999999999;0.03200000000000001;0.05555555555555555;0.0;0.0;0.0;0.0;0.0;0.5366296296296297;6.0;3.0;1.0;0.5;164.22032596245742;4.0;8.0;3.5553480614894135;4.174387269895637;4.90527477843843;5.54907608489522;6.282266746896006;6.932447891572509;7.666221925662725;8.318010277546872;9.05193063522854;73.43496367162535;2.833213344056216;3.970291913552122;5.220355825078324;6.517671272912275;7.838737559599282;35.38026991519822;128.15650064;4.419189677241379;108.0;6.0;34.0;32.0;4.972222222222222;2.1666666666666665