boiling_point;SMILES;IUPAC_name;InChIKey;SpAbs_A;SpMax_A;SpDiam_A;SpAD_A;SpMAD_A;LogEE_A;VE1_A;VE2_A;VE3_A;VR1_A;VR2_A;VR3_A;nAtom;nHeavyAtom;nH;nC;ATS0dv;ATS1dv;ATS2dv;ATS3dv;ATS4dv;ATS5dv;ATS6dv;ATS7dv;ATS8dv;ATS0d;ATS1d;ATS2d;ATS3d;ATS4d;ATS5d;ATS6d;ATS7d;ATS8d;ATS0s;ATS1s;ATS2s;ATS3s;ATS4s;ATS5s;ATS6s;ATS7s;ATS8s;ATS0Z;ATS1Z;ATS2Z;ATS3Z;ATS4Z;ATS5Z;ATS6Z;ATS7Z;ATS8Z;ATS0m;ATS1m;ATS2m;ATS3m;ATS4m;ATS5m;ATS6m;ATS7m;ATS8m;ATS0v;ATS1v;ATS2v;ATS3v;ATS4v;ATS5v;ATS6v;ATS7v;ATS8v;ATS0se;ATS1se;ATS2se;ATS3se;ATS4se;ATS5se;ATS6se;ATS7se;ATS8se;ATS0pe;ATS1pe;ATS2pe;ATS3pe;ATS4pe;ATS5pe;ATS6pe;ATS7pe;ATS8pe;ATS0are;ATS1are;ATS2are;ATS3are;ATS4are;ATS5are;ATS6are;ATS7are;ATS8are;ATS0p;ATS1p;ATS2p;ATS3p;ATS4p;ATS5p;ATS6p;ATS7p;ATS8p;ATS0i;ATS1i;ATS2i;ATS3i;ATS4i;ATS5i;ATS6i;ATS7i;ATS8i;AATS0dv;AATS1dv;AATS2dv;AATS3dv;AATS0d;AATS1d;AATS2d;AATS3d;AATS0s;AATS1s;AATS2s;AATS3s;AATS0Z;AATS1Z;AATS2Z;AATS3Z;AATS0m;AATS1m;AATS2m;AATS3m;AATS0v;AATS1v;AATS2v;AATS3v;AATS0se;AATS1se;AATS2se;AATS3se;AATS0pe;AATS1pe;AATS2pe;AATS3pe;AATS0are;AATS1are;AATS2are;AATS3are;AATS0p;AATS1p;AATS2p;AATS3p;AATS0i;AATS1i;AATS2i;AATS3i;ATSC0c;ATSC1c;ATSC2c;ATSC3c;ATSC4c;ATSC5c;ATSC6c;ATSC7c;ATSC8c;ATSC0dv;ATSC1dv;ATSC2dv;ATSC3dv;ATSC4dv;ATSC5dv;ATSC6dv;ATSC7dv;ATSC8dv;ATSC0d;ATSC1d;ATSC2d;ATSC3d;ATSC4d;ATSC5d;ATSC6d;ATSC7d;ATSC8d;ATSC0s;ATSC1s;ATSC2s;ATSC3s;ATSC4s;ATSC5s;ATSC6s;ATSC7s;ATSC8s;ATSC0Z;ATSC1Z;ATSC2Z;ATSC3Z;ATSC4Z;ATSC5Z;ATSC6Z;ATSC7Z;ATSC8Z;ATSC0m;ATSC1m;ATSC2m;ATSC3m;ATSC4m;ATSC5m;ATSC6m;ATSC7m;ATSC8m;ATSC0v;ATSC1v;ATSC2v;ATSC3v;ATSC4v;ATSC5v;ATSC6v;ATSC7v;ATSC8v;ATSC0se;ATSC1se;ATSC2se;ATSC3se;ATSC4se;ATSC5se;ATSC6se;ATSC7se;ATSC8se;ATSC0pe;ATSC1pe;ATSC2pe;ATSC3pe;ATSC4pe;ATSC5pe;ATSC6pe;ATSC7pe;ATSC8pe;ATSC0are;ATSC1are;ATSC2are;ATSC3are;ATSC4are;ATSC5are;ATSC6are;ATSC7are;ATSC8are;ATSC0p;ATSC1p;ATSC2p;ATSC3p;ATSC4p;ATSC5p;ATSC6p;ATSC7p;ATSC8p;ATSC0i;ATSC1i;ATSC2i;ATSC3i;ATSC4i;ATSC5i;ATSC6i;ATSC7i;ATSC8i;AATSC0c;AATSC1c;AATSC2c;AATSC3c;AATSC0dv;AATSC1dv;AATSC2dv;AATSC3dv;AATSC0d;AATSC1d;AATSC2d;AATSC3d;AATSC0s;AATSC1s;AATSC2s;AATSC3s;AATSC0Z;AATSC1Z;AATSC2Z;AATSC3Z;AATSC0m;AATSC1m;AATSC2m;AATSC3m;AATSC0v;AATSC1v;AATSC2v;AATSC3v;AATSC0se;AATSC1se;AATSC2se;AATSC3se;AATSC0pe;AATSC1pe;AATSC2pe;AATSC3pe;AATSC0are;AATSC1are;AATSC2are;AATSC3are;AATSC0p;AATSC1p;AATSC2p;AATSC3p;AATSC0i;AATSC1i;AATSC2i;AATSC3i;MATS1c;MATS2c;MATS3c;MATS1dv;MATS2dv;MATS3dv;MATS1s;MATS2s;MATS3s;MATS1Z;MATS2Z;MATS3Z;MATS1m;MATS2m;MATS3m;MATS1v;MATS2v;MATS3v;MATS1se;MATS2se;MATS3se;MATS1pe;MATS2pe;MATS3pe;MATS1are;MATS2are;MATS3are;MATS1p;MATS2p;MATS3p;MATS1i;MATS2i;MATS3i;GATS1c;GATS2c;GATS3c;GATS1dv;GATS2dv;GATS3dv;GATS1s;GATS2s;GATS3s;GATS1Z;GATS2Z;GATS3Z;GATS1m;GATS2m;GATS3m;GATS1v;GATS2v;GATS3v;GATS1se;GATS2se;GATS3se;GATS1pe;GATS2pe;GATS3pe;GATS1are;GATS2are;GATS3are;GATS1p;GATS2p;GATS3p;GATS1i;GATS2i;GATS3i;BCUTc-1h;BCUTc-1l;BCUTdv-1h;BCUTdv-1l;BCUTd-1h;BCUTd-1l;BCUTs-1h;BCUTs-1l;BCUTZ-1h;BCUTZ-1l;BCUTm-1h;BCUTm-1l;BCUTv-1h;BCUTv-1l;BCUTse-1h;BCUTse-1l;BCUTpe-1h;BCUTpe-1l;BCUTare-1h;BCUTare-1l;BCUTp-1h;BCUTp-1l;BCUTi-1h;BCUTi-1l;BalabanJ;SpAbs_DzZ;SpMax_DzZ;SpDiam_DzZ;SpAD_DzZ;SpMAD_DzZ;LogEE_DzZ;VE1_DzZ;VE2_DzZ;VE3_DzZ;VR1_DzZ;VR2_DzZ;VR3_DzZ;SpAbs_Dzm;SpMax_Dzm;SpDiam_Dzm;SpAD_Dzm;SpMAD_Dzm;LogEE_Dzm;VE1_Dzm;VE2_Dzm;VE3_Dzm;VR1_Dzm;VR2_Dzm;VR3_Dzm;SpAbs_Dzv;SpMax_Dzv;SpDiam_Dzv;SpAD_Dzv;SpMAD_Dzv;LogEE_Dzv;VE1_Dzv;VE2_Dzv;VE3_Dzv;VR1_Dzv;VR2_Dzv;VR3_Dzv;SpAbs_Dzse;SpMax_Dzse;SpDiam_Dzse;SpAD_Dzse;SpMAD_Dzse;LogEE_Dzse;VE1_Dzse;VE2_Dzse;VE3_Dzse;VR1_Dzse;VR2_Dzse;VR3_Dzse;SpAbs_Dzpe;SpMax_Dzpe;SpDiam_Dzpe;SpAD_Dzpe;SpMAD_Dzpe;LogEE_Dzpe;VE1_Dzpe;VE2_Dzpe;VE3_Dzpe;VR1_Dzpe;VR2_Dzpe;VR3_Dzpe;SpAbs_Dzare;SpMax_Dzare;SpDiam_Dzare;SpAD_Dzare;SpMAD_Dzare;LogEE_Dzare;VE1_Dzare;VE2_Dzare;VE3_Dzare;VR1_Dzare;VR2_Dzare;VR3_Dzare;SpAbs_Dzp;SpMax_Dzp;SpDiam_Dzp;SpAD_Dzp;SpMAD_Dzp;LogEE_Dzp;VE1_Dzp;VE2_Dzp;VE3_Dzp;VR1_Dzp;VR2_Dzp;VR3_Dzp;SpAbs_Dzi;SpMax_Dzi;SpDiam_Dzi;SpAD_Dzi;SpMAD_Dzi;LogEE_Dzi;VE1_Dzi;VE2_Dzi;VE3_Dzi;VR1_Dzi;VR2_Dzi;VR3_Dzi;BertzCT;nBonds;nBondsO;nBondsS;nBondsKS;RNCG;RPCG;C1SP3;C2SP3;C3SP3;C4SP3;Xc-3d;Xc-4d;Xc-5d;Xc-6d;Xc-3dv;Xc-4dv;Xc-5dv;Xc-6dv;Xpc-4d;Xpc-5d;Xpc-6d;Xpc-4dv;Xpc-5dv;Xpc-6dv;Xp-0d;Xp-1d;Xp-2d;Xp-3d;Xp-4d;Xp-5d;Xp-6d;Xp-7d;AXp-0d;AXp-1d;Xp-0dv;Xp-1dv;Xp-2dv;Xp-3dv;Xp-4dv;Xp-5dv;Xp-6dv;Xp-7dv;AXp-0dv;AXp-1dv;SZ;Sm;Sv;Sse;Spe;Sare;Sp;Si;MZ;Mm;Mv;Mse;Mpe;Mare;Mp;Mi;SpAbs_D;SpMax_D;SpDiam_D;SpAD_D;SpMAD_D;LogEE_D;VE1_D;VE2_D;VE3_D;VR1_D;VR2_D;VR3_D;NsCH3;NssCH2;NsssCH;NssssC;SsCH3;SssCH2;SsssCH;SssssC;MAXsCH3;MINsCH3;ECIndex;ETA_alpha;ETA_shape_p;ETA_shape_y;ETA_shape_x;ETA_beta;AETA_beta;ETA_beta_s;AETA_beta_s;ETA_eta;AETA_eta;ETA_eta_L;AETA_eta_L;ETA_eta_R;AETA_eta_R;ETA_eta_RL;AETA_eta_RL;ETA_eta_B;AETA_eta_B;ETA_eta_BR;AETA_eta_BR;ETA_epsilon_1;ETA_epsilon_2;ETA_epsilon_3;ETA_epsilon_4;ETA_epsilon_5;ETA_dBeta;AETA_dBeta;ETA_psi_1;ETA_dPsi_B;fragCpx;IC0;IC1;IC2;IC3;IC4;IC5;TIC0;TIC1;TIC2;TIC3;TIC4;TIC5;SIC0;SIC1;SIC2;SIC3;SIC4;SIC5;BIC0;BIC1;BIC2;BIC3;BIC4;BIC5;CIC0;CIC1;CIC2;CIC3;CIC4;CIC5;MIC0;MIC1;MIC2;MIC3;MIC4;MIC5;ZMIC0;ZMIC1;ZMIC2;ZMIC3;ZMIC4;ZMIC5;Kier1;Lipinski;GhoseFilter;FilterItLogS;VMcGowan;LabuteASA;PEOE_VSA6;PEOE_VSA7;SMR_VSA4;SMR_VSA5;SlogP_VSA4;SlogP_VSA5;EState_VSA3;EState_VSA4;EState_VSA5;EState_VSA7;EState_VSA8;VSA_EState4;VSA_EState5;VSA_EState7;VSA_EState8;MDEC-11;MID;AMID;MID_C;AMID_C;MPC2;MPC3;MPC4;MPC5;MPC6;MPC7;MPC8;MPC9;MPC10;TMPC10;piPC1;piPC2;piPC3;piPC4;piPC5;piPC6;piPC7;piPC8;piPC9;piPC10;TpiPC10;apol;bpol;nRot;RotRatio;SLogP;SMR;GGI1;GGI2;GGI3;GGI4;GGI5;GGI6;GGI7;GGI8;GGI9;GGI10;JGI1;JGI2;JGI3;JGI4;JGI5;JGI6;JGI7;JGI8;JGI9;JGI10;JGT10;Diameter;Radius;TopoShapeIndex;PetitjeanIndex;Vabc;VAdjMat;MWC01;MWC02;MWC03;MWC04;MWC05;MWC06;MWC07;MWC08;MWC09;MWC10;TMWC10;SRW02;SRW04;SRW06;SRW08;SRW10;TSRW10;MW;AMW;WPath;WPol;Zagreb1;Zagreb2;mZagreb1;mZagreb2
90.0;CCCCC(C)C;2-methylhexane;GXDHCNNESPLIKD-UHFFFAOYSA-N;7.727406610312546;1.9318516525781364;3.8637033051562724;7.727406610312546;1.1039152300446493;2.752227315274452;2.4813804754348485;0.3544829250621212;0.5521401046902371;16.819498868183157;2.4027855525975936;2.46586391635623;23.0;7.0;16.0;7.0;24.0;22.0;17.0;12.0;7.0;2.0;0.0;0.0;0.0;40.0;46.0;81.0;80.0;72.0;48.0;27.0;18.0;0.0;36.52777777777778;43.166666666666664;65.91666666666666;80.66666666666666;71.33333333333333;50.99999999999999;39.0;18.0;0.0;268.0;312.0;372.0;334.0;249.0;176.0;87.0;18.0;0.0;1026.1058709999998;1059.2981339999997;1168.3476059999998;938.4083559999997;684.250059;478.3487539999999;160.526016;18.289152;0.0;3461.9582231401932;4376.8872724242765;5667.785136559589;5590.535242852306;4361.573366138023;3075.0213213045254;1843.0955629101777;559.5073997567447;0.0;160.27903600000005;159.12520800000001;296.68783199999996;377.261968;372.448236;249.09716000000003;186.18854399999998;120.932352;0.0;122.95750000000004;128.77499999999998;231.735;289.57000000000005;280.2075;188.345;139.92000000000002;87.12;0.0;121.19000000000003;125.5;227.57999999999998;285.48;277.47;186.3;138.60000000000002;87.12;0.0;26.63610647758399;34.550108959999996;48.793818298188;52.116324586678004;43.082723440017;30.05967843698;20.031725292735;8.003032287282;0.0;3846.242925017984;3210.7268999464;6654.719105940589;8862.797104854679;9238.871443902419;6095.65742064558;4611.235352918535;3328.5177364364818;0.0;1.0434782608695652;1.0;0.40476190476190477;0.2222222222222222;1.7391304347826086;2.090909090909091;1.9285714285714286;1.4814814814814814;1.5881642512077294;1.962121212121212;1.5694444444444442;1.493827160493827;11.652173913043478;14.181818181818182;8.857142857142858;6.185185185185185;44.61329873913042;48.149915181818166;27.817800142857138;17.377932518518513;150.51992274522578;198.94942147383074;134.9472651561807;103.52843042319084;6.968653739130437;7.232964000000001;7.063995999999999;6.986332740740742;5.3459782608695665;5.85340909090909;5.5175;5.362407407407408;5.26913043478261;5.704545454545454;5.418571428571428;5.286666666666667;1.1580915859819125;1.570459498181818;1.1617575785282857;0.9651171219755186;167.22795326165146;145.94213181574546;158.44569299858546;164.12587231212368;0.03296863583594155;-0.005540095845019919;-0.0069095714441934075;-0.011892344135963781;0.0053096463721356065;0.001275021124606614;-0.008391201980670365;0.009664227991134467;0.0;17.739130434782602;2.9451795841209814;-9.132325141776938;-4.604914933837429;-0.21361058601134086;-3.8525519848771257;1.0888468809073724;4.8998109640831755;0.0;5.913043478260867;0.6918714555765586;-2.841209829867676;-0.6654064272211723;-1.3610586011342152;-0.9073724007561437;1.275992438563328;0.8506616257088853;0.0;2.8454106280193248;-1.2579290065112376;0.3583805923125394;-1.2022684310018905;0.3557025834908636;0.857908002520479;-1.3293950850661624;0.7948960302457471;0.0;121.73913043478264;-12.098298676748588;-26.654064272211734;-48.86578449905482;17.43856332703214;-3.5916824196597323;-28.78071833648393;41.68241965973536;0.0;589.5388264347828;-58.587709459356944;-129.07604740264625;-236.63942023818518;84.4486905879015;-17.39322624574678;-139.37466820604925;201.8529677466916;0.0;1096.2726219649105;-108.94634752446282;-240.02242188983263;-440.0411067980268;157.03594623643298;-32.343446921325125;-259.1731470406175;375.3542129553767;0.0;0.11548660869565203;-0.011476930056709505;-0.02528511153119;-0.046356037807183045;0.01654291871455498;-0.0034072136105863468;-0.027302540642722473;0.039541610586010356;0.0;0.5965217391304339;-0.05928166351607157;-0.13060491493383974;-0.23944234404536893;0.0854489603024595;-0.017599243856331676;-0.14102551984876985;0.20424385633270553;0.0;0.43826086956521704;-0.04355387523629765;-0.09595463137996406;-0.17591682419659777;0.0627788279773173;-0.012930056710774273;-0.10361058601134117;0.15005671077504917;0.0;4.900848691438608;-0.4870408637454456;-1.0730119029391942;-1.9671884887218622;0.7020237450080887;-0.14459025642443268;-1.1586245547694556;1.678007975872997;0.0;26.621487874186418;-2.6456137017826453;-5.828617686739674;-10.68579909235591;3.813404124835019;-0.78541656771664;-6.293666970255981;9.114965956922628;0.0;0.001433418949388763;-0.0002518225384099963;-0.00016451360581412876;-0.00022022859511044038;0.7712665406427218;0.13387179927822643;-0.21743631289945092;-0.0852762024784709;0.2570888468809073;0.03144870252620721;-0.06764785309208753;-0.012322341244836523;0.1237135055660576;-0.05717859120505626;0.008532871245536653;-0.022264230203738713;5.293005671077506;-0.5499226671249358;-0.6346205779098032;-0.9049219351676818;25.632122888468817;-2.663077702698043;-3.07323922387253;-4.382211485892318;47.66402704195263;-4.952106705657401;-5.714819568805539;-8.148909385148645;0.005021156899810958;-0.0005216786389413412;-0.0006020264650283333;-0.0008584451445774638;0.025935727788279735;-0.002694621068912344;-0.003109640831758089;-0.004434117482321647;0.019054820415879;-0.001979721601649893;-0.0022846340804753345;-0.0032577189666036623;0.21308037788863513;-0.022138221079338435;-0.025547902450933198;-0.036429416457812266;1.1574559945298442;-0.12025516826284752;-0.13877661158903987;-0.19788516837696132;-0.17567964935679006;-0.11477007882746387;-0.1536386798879351;0.17357397504456323;-0.28192110177404306;-0.11056644880174295;-0.4621855224571693;0.06897283531409165;-0.17996604414261455;-0.10389610389610392;-0.1198979591836735;-0.17096560846560843;-0.10389610389610326;-0.11989795918367321;-0.17096560846560838;-0.10389610389610357;-0.11989795918367334;-0.17096560846560843;-0.10389610389609254;-0.11989795918366923;-0.1709656084656075;-0.1038961038961102;-0.11989795918367577;-0.1709656084656089;-0.10389610389611054;-0.11989795918367588;-0.17096560846560901;-0.1038961038961026;-0.11989795918367302;-0.17096560846560838;-0.10389610389610955;-0.11989795918367556;-0.17096560846560893;1.713331276848094;1.2062690243066503;1.1649080627591273;1.4656862745098045;1.8898225957049493;1.0334967320261443;2.069609507640067;0.7977201067184085;1.1812393887945667;1.6428571428571428;1.290816326530612;1.171296296296296;1.6428571428571423;1.2908163265306118;1.171296296296296;1.6428571428571428;1.290816326530612;1.1712962962962963;1.6428571428571432;1.2908163265306123;1.1712962962962967;1.6428571428571417;1.2908163265306116;1.1712962962962956;1.6428571428571421;1.2908163265306116;1.1712962962962956;1.6428571428571432;1.2908163265306125;1.1712962962962967;1.6428571428571421;1.2908163265306118;1.1712962962962958;0.20067139425740593;-0.20446181842535;3.021905530565772;0.9871324742012555;3.021905530565772;0.9871324742012555;2.0369396653507055;1.2515777020861598;6.204247699503487;5.8000044868210106;12.215247699503491;11.811004486821014;20.783773975619024;20.379530762936554;2.9502476995034903;2.5460044868210128;2.7542476995034915;2.350004486821017;2.7042476995034868;2.300004486821014;1.8742476995034896;1.4700044868210167;11.464547699503493;11.06030448682103;2.678257743164726;30.80953372865899;15.404766864329495;24.297933041903924;30.80953372865899;4.401361961236999;15.404767428568494;2.604985223261013;0.3721407461801447;0.6007520587979234;17.513560359408817;2.50193719420126;2.506300514608528;30.80953372865899;15.404766864329495;24.297933041903924;30.80953372865899;4.401361961236999;15.404767428568494;2.604985223261013;0.3721407461801447;0.6007520587979234;17.513560359408817;2.50193719420126;2.506300514608528;30.80953372865899;15.404766864329495;24.297933041903924;30.80953372865899;4.401361961236999;15.404767428568494;2.604985223261013;0.3721407461801447;0.6007520587979234;17.513560359408817;2.50193719420126;2.506300514608528;30.80953372865899;15.404766864329495;24.297933041903924;30.80953372865899;4.401361961236999;15.404767428568494;2.604985223261013;0.3721407461801447;0.6007520587979234;17.513560359408817;2.50193719420126;2.506300514608528;30.80953372865899;15.404766864329495;24.297933041903924;30.80953372865899;4.401361961236999;15.404767428568494;2.604985223261013;0.3721407461801447;0.6007520587979234;17.513560359408817;2.50193719420126;2.506300514608528;30.80953372865899;15.404766864329495;24.297933041903924;30.80953372865899;4.401361961236999;15.404767428568494;2.604985223261013;0.3721407461801447;0.6007520587979234;17.513560359408817;2.50193719420126;2.506300514608528;30.80953372865899;15.404766864329495;24.297933041903924;30.80953372865899;4.401361961236999;15.404767428568494;2.604985223261013;0.3721407461801447;0.6007520587979234;17.513560359408817;2.50193719420126;2.506300514608528;30.80953372865899;15.404766864329495;24.297933041903924;30.80953372865899;4.401361961236999;15.404767428568494;2.604985223261013;0.3721407461801447;0.6007520587979234;17.513560359408817;2.50193719420126;2.506300514608528;29.01955000865387;22.0;6.0;22.0;22.0;0.16405695221349573;0.07452778858348674;3.0;3.0;1.0;0.0;0.408248290463863;0.0;0.0;0.0;0.408248290463863;0.0;0.0;0.0;0.28867513459481287;0.2041241452319315;0.2041241452319315;0.28867513459481287;0.2041241452319315;0.2041241452319315;5.698670612749268;3.270055610029662;2.5360753753054386;1.135027805014831;0.6123724356957945;0.408248290463863;0.0;0.0;0.814095801821324;0.545009268338277;5.698670612749268;3.270055610029662;2.5360753753054386;1.135027805014831;0.6123724356957945;0.408248290463863;0.0;0.0;0.814095801821324;0.545009268338277;9.666666666666663;8.34276912829906;11.334622430286997;22.10269482884195;20.803921568627455;21.08;13.38843592814371;26.322317167393408;0.4202898550724636;0.3627290925347418;0.49280967088204336;0.9609867316887805;0.9045183290707589;0.9165217391304347;0.5821059099192918;1.1444485724953655;30.80953372865899;15.404766864329495;24.297933041903924;30.80953372865899;4.401361961236999;15.404767428568494;2.604985223261013;0.3721407461801447;0.6007520587979234;17.513560359408817;2.50193719420126;2.506300514608528;3.0;3.0;1.0;0.0;6.785416666666666;4.145185185185185;0.9027314814814813;0.0;2.2734722222222223;2.238472222222222;47.0;3.5;0.42857142857142855;0.14285714285714285;0.0;3.0;0.42857142857142855;3.0;0.42857142857142855;7.025920429606598;1.0037029185152282;3.270055610029662;0.46715080143280885;7.025920429606598;1.0037029185152282;3.270055610029662;0.46715080143280885;0.14415795234343287;0.020593993191918982;0.14415795234343287;0.020593993191918982;0.42173913043478256;0.7;0.42173913043478256;0.42173913043478256;0.7;-3.0;-0.42857142857142855;0.7142857142857144;0.00028571428571444457;6.0;0.8865408928220899;1.3274847819558417;2.521861955304502;3.2946635862096043;3.2946635862096043;3.2946635862096043;20.39044053490807;30.53214998498436;58.002824972003545;75.7772624828209;75.7772624828209;75.7772624828209;0.19598292262472913;0.2934600641820215;0.5574947308785612;0.7283339143389153;0.7283339143389153;0.7283339143389153;0.1988013201316891;0.29768026409641224;0.5655119690062939;0.7388079620820333;0.7388079620820333;0.7388079620820333;3.637021063234923;3.1960771741011715;2.001700000752511;1.2288983698474087;1.2288983698474087;1.2288983698474087;6.640762870645904;11.936939923031396;16.73348317344551;17.51246721739785;17.51246721739785;17.51246721739785;27.765075162887893;20.806172767965645;17.575220926044228;15.796331588953624;15.796331588953624;15.796331588953624;7.0;1.0;0.0;-2.225392278361068;109.49000000000004;46.92890371420919;40.0336764678499;5.917906046161393;5.917906046161393;40.0336764678499;5.917906046161393;40.0336764678499;0.0;5.917906046161393;19.26246486877803;0.0;20.771211599071872;0.0;0.9027314814814813;4.145185185185185;6.785416666666666;0.814325284978472;12.670365275467145;1.810052182209592;12.670365275467145;1.810052182209592;6.0;4.0;3.0;2.0;0.0;0.0;0.0;0.0;0.0;28.0;1.9459101490553132;1.9459101490553132;1.6094379124341003;1.3862943611198906;1.0986122886681098;0.0;0.0;0.0;0.0;0.0;3.367295829986474;22.358688;16.051312;3.0;0.5;2.832600000000001;34.362999999999985;1.5;0.44444444444444464;0.25;0.16000000000000003;0.0;0.0;0.0;0.0;0.0;0.0;0.25;0.07407407407407411;0.0625;0.053333333333333344;0.0;0.0;0.0;0.0;0.0;0.0;0.4399074074074074;5.0;3.0;0.6666666666666666;0.4;129.62835551474285;3.584962500721156;6.0;3.2188758248682006;3.8066624897703196;4.48863636973214;5.10594547390058;5.7899601708972535;6.418364935936212;7.10085190894405;7.734121303328305;8.415160465851086;65.07857894322815;2.5649493574615367;3.6109179126442243;4.795790545596741;6.042632833682381;7.321849713788356;31.33614036317324;100.12520051199999;4.353269587478261;52.0;4.0;24.0;22.0;3.861111111111111;1.8333333333333333