boiling_point;SMILES;IUPAC_name;InChIKey;SpAbs_A;SpMax_A;SpDiam_A;SpAD_A;SpMAD_A;LogEE_A;VE1_A;VE2_A;VE3_A;VR1_A;VR2_A;VR3_A;nAtom;nHeavyAtom;nH;nC;ATS0dv;ATS1dv;ATS2dv;ATS3dv;ATS4dv;ATS5dv;ATS6dv;ATS7dv;ATS8dv;ATS0d;ATS1d;ATS2d;ATS3d;ATS4d;ATS5d;ATS6d;ATS7d;ATS8d;ATS0s;ATS1s;ATS2s;ATS3s;ATS4s;ATS5s;ATS6s;ATS7s;ATS8s;ATS0Z;ATS1Z;ATS2Z;ATS3Z;ATS4Z;ATS5Z;ATS6Z;ATS7Z;ATS8Z;ATS0m;ATS1m;ATS2m;ATS3m;ATS4m;ATS5m;ATS6m;ATS7m;ATS8m;ATS0v;ATS1v;ATS2v;ATS3v;ATS4v;ATS5v;ATS6v;ATS7v;ATS8v;ATS0se;ATS1se;ATS2se;ATS3se;ATS4se;ATS5se;ATS6se;ATS7se;ATS8se;ATS0pe;ATS1pe;ATS2pe;ATS3pe;ATS4pe;ATS5pe;ATS6pe;ATS7pe;ATS8pe;ATS0are;ATS1are;ATS2are;ATS3are;ATS4are;ATS5are;ATS6are;ATS7are;ATS8are;ATS0p;ATS1p;ATS2p;ATS3p;ATS4p;ATS5p;ATS6p;ATS7p;ATS8p;ATS0i;ATS1i;ATS2i;ATS3i;ATS4i;ATS5i;ATS6i;ATS7i;ATS8i;AATS0dv;AATS1dv;AATS2dv;AATS3dv;AATS0d;AATS1d;AATS2d;AATS3d;AATS0s;AATS1s;AATS2s;AATS3s;AATS0Z;AATS1Z;AATS2Z;AATS3Z;AATS0m;AATS1m;AATS2m;AATS3m;AATS0v;AATS1v;AATS2v;AATS3v;AATS0se;AATS1se;AATS2se;AATS3se;AATS0pe;AATS1pe;AATS2pe;AATS3pe;AATS0are;AATS1are;AATS2are;AATS3are;AATS0p;AATS1p;AATS2p;AATS3p;AATS0i;AATS1i;AATS2i;AATS3i;ATSC0c;ATSC1c;ATSC2c;ATSC3c;ATSC4c;ATSC5c;ATSC6c;ATSC7c;ATSC8c;ATSC0dv;ATSC1dv;ATSC2dv;ATSC3dv;ATSC4dv;ATSC5dv;ATSC6dv;ATSC7dv;ATSC8dv;ATSC0d;ATSC1d;ATSC2d;ATSC3d;ATSC4d;ATSC5d;ATSC6d;ATSC7d;ATSC8d;ATSC0s;ATSC1s;ATSC2s;ATSC3s;ATSC4s;ATSC5s;ATSC6s;ATSC7s;ATSC8s;ATSC0Z;ATSC1Z;ATSC2Z;ATSC3Z;ATSC4Z;ATSC5Z;ATSC6Z;ATSC7Z;ATSC8Z;ATSC0m;ATSC1m;ATSC2m;ATSC3m;ATSC4m;ATSC5m;ATSC6m;ATSC7m;ATSC8m;ATSC0v;ATSC1v;ATSC2v;ATSC3v;ATSC4v;ATSC5v;ATSC6v;ATSC7v;ATSC8v;ATSC0se;ATSC1se;ATSC2se;ATSC3se;ATSC4se;ATSC5se;ATSC6se;ATSC7se;ATSC8se;ATSC0pe;ATSC1pe;ATSC2pe;ATSC3pe;ATSC4pe;ATSC5pe;ATSC6pe;ATSC7pe;ATSC8pe;ATSC0are;ATSC1are;ATSC2are;ATSC3are;ATSC4are;ATSC5are;ATSC6are;ATSC7are;ATSC8are;ATSC0p;ATSC1p;ATSC2p;ATSC3p;ATSC4p;ATSC5p;ATSC6p;ATSC7p;ATSC8p;ATSC0i;ATSC1i;ATSC2i;ATSC3i;ATSC4i;ATSC5i;ATSC6i;ATSC7i;ATSC8i;AATSC0c;AATSC1c;AATSC2c;AATSC3c;AATSC0dv;AATSC1dv;AATSC2dv;AATSC3dv;AATSC0d;AATSC1d;AATSC2d;AATSC3d;AATSC0s;AATSC1s;AATSC2s;AATSC3s;AATSC0Z;AATSC1Z;AATSC2Z;AATSC3Z;AATSC0m;AATSC1m;AATSC2m;AATSC3m;AATSC0v;AATSC1v;AATSC2v;AATSC3v;AATSC0se;AATSC1se;AATSC2se;AATSC3se;AATSC0pe;AATSC1pe;AATSC2pe;AATSC3pe;AATSC0are;AATSC1are;AATSC2are;AATSC3are;AATSC0p;AATSC1p;AATSC2p;AATSC3p;AATSC0i;AATSC1i;AATSC2i;AATSC3i;MATS1c;MATS2c;MATS3c;MATS1dv;MATS2dv;MATS3dv;MATS1s;MATS2s;MATS3s;MATS1Z;MATS2Z;MATS3Z;MATS1m;MATS2m;MATS3m;MATS1v;MATS2v;MATS3v;MATS1se;MATS2se;MATS3se;MATS1pe;MATS2pe;MATS3pe;MATS1are;MATS2are;MATS3are;MATS1p;MATS2p;MATS3p;MATS1i;MATS2i;MATS3i;GATS1c;GATS2c;GATS3c;GATS1dv;GATS2dv;GATS3dv;GATS1s;GATS2s;GATS3s;GATS1Z;GATS2Z;GATS3Z;GATS1m;GATS2m;GATS3m;GATS1v;GATS2v;GATS3v;GATS1se;GATS2se;GATS3se;GATS1pe;GATS2pe;GATS3pe;GATS1are;GATS2are;GATS3are;GATS1p;GATS2p;GATS3p;GATS1i;GATS2i;GATS3i;BCUTc-1h;BCUTc-1l;BCUTdv-1h;BCUTdv-1l;BCUTd-1h;BCUTd-1l;BCUTs-1h;BCUTs-1l;BCUTZ-1h;BCUTZ-1l;BCUTm-1h;BCUTm-1l;BCUTv-1h;BCUTv-1l;BCUTse-1h;BCUTse-1l;BCUTpe-1h;BCUTpe-1l;BCUTare-1h;BCUTare-1l;BCUTp-1h;BCUTp-1l;BCUTi-1h;BCUTi-1l;BalabanJ;SpAbs_DzZ;SpMax_DzZ;SpDiam_DzZ;SpAD_DzZ;SpMAD_DzZ;LogEE_DzZ;VE1_DzZ;VE2_DzZ;VE3_DzZ;VR1_DzZ;VR2_DzZ;VR3_DzZ;SpAbs_Dzm;SpMax_Dzm;SpDiam_Dzm;SpAD_Dzm;SpMAD_Dzm;LogEE_Dzm;VE1_Dzm;VE2_Dzm;VE3_Dzm;VR1_Dzm;VR2_Dzm;VR3_Dzm;SpAbs_Dzv;SpMax_Dzv;SpDiam_Dzv;SpAD_Dzv;SpMAD_Dzv;LogEE_Dzv;VE1_Dzv;VE2_Dzv;VE3_Dzv;VR1_Dzv;VR2_Dzv;VR3_Dzv;SpAbs_Dzse;SpMax_Dzse;SpDiam_Dzse;SpAD_Dzse;SpMAD_Dzse;LogEE_Dzse;VE1_Dzse;VE2_Dzse;VE3_Dzse;VR1_Dzse;VR2_Dzse;VR3_Dzse;SpAbs_Dzpe;SpMax_Dzpe;SpDiam_Dzpe;SpAD_Dzpe;SpMAD_Dzpe;LogEE_Dzpe;VE1_Dzpe;VE2_Dzpe;VE3_Dzpe;VR1_Dzpe;VR2_Dzpe;VR3_Dzpe;SpAbs_Dzare;SpMax_Dzare;SpDiam_Dzare;SpAD_Dzare;SpMAD_Dzare;LogEE_Dzare;VE1_Dzare;VE2_Dzare;VE3_Dzare;VR1_Dzare;VR2_Dzare;VR3_Dzare;SpAbs_Dzp;SpMax_Dzp;SpDiam_Dzp;SpAD_Dzp;SpMAD_Dzp;LogEE_Dzp;VE1_Dzp;VE2_Dzp;VE3_Dzp;VR1_Dzp;VR2_Dzp;VR3_Dzp;SpAbs_Dzi;SpMax_Dzi;SpDiam_Dzi;SpAD_Dzi;SpMAD_Dzi;LogEE_Dzi;VE1_Dzi;VE2_Dzi;VE3_Dzi;VR1_Dzi;VR2_Dzi;VR3_Dzi;BertzCT;nBonds;nBondsO;nBondsS;nBondsKS;RNCG;RPCG;C1SP3;C2SP3;C3SP3;C4SP3;Xc-3d;Xc-4d;Xc-5d;Xc-6d;Xc-3dv;Xc-4dv;Xc-5dv;Xc-6dv;Xpc-4d;Xpc-5d;Xpc-6d;Xpc-4dv;Xpc-5dv;Xpc-6dv;Xp-0d;Xp-1d;Xp-2d;Xp-3d;Xp-4d;Xp-5d;Xp-6d;Xp-7d;AXp-0d;AXp-1d;Xp-0dv;Xp-1dv;Xp-2dv;Xp-3dv;Xp-4dv;Xp-5dv;Xp-6dv;Xp-7dv;AXp-0dv;AXp-1dv;SZ;Sm;Sv;Sse;Spe;Sare;Sp;Si;MZ;Mm;Mv;Mse;Mpe;Mare;Mp;Mi;SpAbs_D;SpMax_D;SpDiam_D;SpAD_D;SpMAD_D;LogEE_D;VE1_D;VE2_D;VE3_D;VR1_D;VR2_D;VR3_D;NsCH3;NssCH2;NsssCH;NssssC;SsCH3;SssCH2;SsssCH;SssssC;MAXsCH3;MINsCH3;ECIndex;ETA_alpha;ETA_shape_p;ETA_shape_y;ETA_shape_x;ETA_beta;AETA_beta;ETA_beta_s;AETA_beta_s;ETA_eta;AETA_eta;ETA_eta_L;AETA_eta_L;ETA_eta_R;AETA_eta_R;ETA_eta_RL;AETA_eta_RL;ETA_eta_B;AETA_eta_B;ETA_eta_BR;AETA_eta_BR;ETA_epsilon_1;ETA_epsilon_2;ETA_epsilon_3;ETA_epsilon_4;ETA_epsilon_5;ETA_dBeta;AETA_dBeta;ETA_psi_1;ETA_dPsi_B;fragCpx;IC0;IC1;IC2;IC3;IC4;IC5;TIC0;TIC1;TIC2;TIC3;TIC4;TIC5;SIC0;SIC1;SIC2;SIC3;SIC4;SIC5;BIC0;BIC1;BIC2;BIC3;BIC4;BIC5;CIC0;CIC1;CIC2;CIC3;CIC4;CIC5;MIC0;MIC1;MIC2;MIC3;MIC4;MIC5;ZMIC0;ZMIC1;ZMIC2;ZMIC3;ZMIC4;ZMIC5;Kier1;Lipinski;GhoseFilter;FilterItLogS;VMcGowan;LabuteASA;PEOE_VSA6;PEOE_VSA7;SMR_VSA4;SMR_VSA5;SlogP_VSA4;SlogP_VSA5;EState_VSA3;EState_VSA4;EState_VSA5;EState_VSA7;EState_VSA8;VSA_EState4;VSA_EState5;VSA_EState7;VSA_EState8;MDEC-11;MID;AMID;MID_C;AMID_C;MPC2;MPC3;MPC4;MPC5;MPC6;MPC7;MPC8;MPC9;MPC10;TMPC10;piPC1;piPC2;piPC3;piPC4;piPC5;piPC6;piPC7;piPC8;piPC9;piPC10;TpiPC10;apol;bpol;nRot;RotRatio;SLogP;SMR;GGI1;GGI2;GGI3;GGI4;GGI5;GGI6;GGI7;GGI8;GGI9;GGI10;JGI1;JGI2;JGI3;JGI4;JGI5;JGI6;JGI7;JGI8;JGI9;JGI10;JGT10;Diameter;Radius;TopoShapeIndex;PetitjeanIndex;Vabc;VAdjMat;MWC01;MWC02;MWC03;MWC04;MWC05;MWC06;MWC07;MWC08;MWC09;MWC10;TMWC10;SRW02;SRW04;SRW06;SRW08;SRW10;TSRW10;MW;AMW;WPath;WPol;Zagreb1;Zagreb2;mZagreb1;mZagreb2
-11.7;CC(C)C;2-methylpropane;NNPPMTNAJDCUHE-UHFFFAOYSA-N;3.4641016151377544;1.7320508075688772;3.4641016151377544;3.4641016151377544;0.8660254037844386;2.1780592999959434;1.931851652578137;0.48296291314453427;-0.25781178341174643;5.583629154612597;1.3959072886531492;0.8035482192409547;14.0;4.0;10.0;4.0;12.0;9.0;3.0;0.0;0.0;0.0;0.0;0.0;0.0;22.0;21.0;42.0;27.0;27.0;0.0;0.0;0.0;0.0;23.77777777777778;27.333333333333332;39.0;45.0;27.0;0.0;0.0;0.0;0.0;154.0;168.0;189.0;117.0;27.0;0.0;0.0;0.0;0.0;587.2171240000001;553.8632429999999;587.2219949999999;227.07216;27.433728000000002;0.0;0.0;0.0;0.0;2004.905051306621;2417.9168689531753;2927.1438015725853;2345.012794547708;839.261099635117;0.0;0.0;0.0;0.0;97.34670399999999;93.797868;168.49930799999998;188.583552;181.398528;0.0;0.0;0.0;0.0;74.41000000000003;75.6075;130.3875;144.54000000000002;130.68;0.0;0.0;0.0;0.0;73.40000000000002;73.75;128.31;142.56;130.68;0.0;0.0;0.0;0.0;15.601729048490002;19.502143099999998;25.730747863641;24.045313723641;12.004548430923;0.0;0.0;0.0;0.0;2356.35394460249;1911.608545399;3882.1125090430414;4420.464727050441;4992.776604654722;0.0;0.0;0.0;0.0;0.8571428571428571;0.6923076923076923;0.125;0.0;1.5714285714285714;1.6153846153846154;1.75;1.0;1.6984126984126984;2.1025641025641026;1.625;1.6666666666666667;11.0;12.923076923076923;7.875;4.333333333333333;41.94408028571429;42.60486484615384;24.467583124999994;8.41008;143.20750366475866;185.9936053040904;121.96432506552439;86.85232572398918;6.953335999999999;7.215220615384615;7.0208045;6.984576;5.315000000000002;5.815961538461538;5.4328125;5.353333333333334;5.242857142857145;5.673076923076923;5.34625;5.28;1.114409217749286;1.5001648538461536;1.072114494318375;0.8905671749496668;168.310996043035;147.04681118453846;161.75468787679338;163.720915816683;0.02017019806557559;-0.005235161275072736;0.0007615806714031501;-0.020266570527494282;0.014655052098376068;0.0;0.0;0.0;0.0;9.428571428571434;1.102040816326531;-8.020408163265305;-2.7551020408163263;4.959183673469387;0.0;0.0;0.0;0.0;3.714285714285713;-0.8775510204081629;-2.0816326530612237;0.5510204081632648;0.5510204081632648;0.0;0.0;0.0;0.0;2.3174603174603177;-1.437641723356008;1.5034013605442178;-2.755102040816326;1.5306122448979569;0.0;0.0;0.0;0.0;71.42857142857144;-12.755102040816316;-4.591836734693878;-73.46938775510205;55.102040816326515;0.0;0.0;0.0;0.0;345.9028828571429;-61.76837193877556;-22.236613897959202;-355.7858223673469;266.83936677551026;0.0;0.0;0.0;0.0;643.2211812549219;-114.86092522409298;-41.34993308067342;-661.5989292907768;496.1991969680823;0.0;0.0;0.0;0.0;0.06775999999999993;-0.012099999999999483;-0.00435599999999974;-0.06969599999999976;0.05227199999999904;0.0;0.0;0.0;0.0;0.3499999999999994;-0.06249999999999911;-0.022499999999999604;-0.35999999999999904;0.2699999999999981;0.0;0.0;0.0;0.0;0.25714285714285684;-0.04591836734693806;-0.01653061224489759;-0.26448979591836685;0.19836734693877411;0.0;0.0;0.0;0.0;2.8754979567114285;-0.5134817779841854;-0.18485344007430693;-2.9576550411888984;2.218241280891677;0.0;0.0;0.0;0.0;15.619750538425695;-2.789241167575997;-1.0041268203273574;-16.066029125237854;12.049521843928359;0.0;0.0;0.0;0.0;0.0014407284332553993;-0.0004027047134671335;3.173252797513125e-05;-0.000750613723240529;0.6734693877551025;0.08477237048665623;-0.3341836734693877;-0.1020408163265306;0.2653061224489795;-0.06750392464678176;-0.08673469387755099;0.020408163265306103;0.16553287981859413;-0.11058782487353908;0.06264172335600908;-0.10204081632653059;5.102040816326531;-0.9811616954474089;-0.19132653061224492;-2.72108843537415;24.70734877551021;-4.751413226059658;-0.9265255790816335;-13.177252680272106;45.94437008963728;-8.83545578646869;-1.7229138783613926;-24.50366404780655;0.004839999999999995;-0.000930769230769191;-0.00018149999999998918;-0.0025813333333333244;0.02499999999999996;-0.0048076923076922394;-0.0009374999999999835;-0.013333333333333298;0.018367346938775488;-0.00353218210361062;-0.0006887755102040661;-0.009795918367346921;0.20539271119367347;-0.0394985983064758;-0.007702226669762789;-0.10954277930329254;1.1156964670304068;-0.2145570128904613;-0.041838617513639896;-0.5950381157495501;-0.2795146567331927;0.0220253361026755;-0.5209959808625968;0.12587412587412586;-0.4962121212121208;-0.1515151515151514;-0.6680716543730237;0.3784246575342466;-0.6164383561643834;-0.1923076923076921;-0.03749999999999999;-0.5333333333333333;-0.1923076923076924;-0.037500000000000026;-0.5333333333333331;-0.19230769230769193;-0.03749999999999988;-0.5333333333333333;-0.1923076923076843;-0.0374999999999978;-0.533333333333332;-0.19230769230768988;-0.0374999999999994;-0.5333333333333328;-0.19230769230768954;-0.0374999999999992;-0.533333333333333;-0.19230769230769296;-0.037500000000000165;-0.5333333333333334;-0.19230769230769093;-0.03749999999999968;-0.5333333333333332;1.8319008081292312;0.9933467931268359;1.6053691281213311;1.59090909090909;2.4128787878787863;0.4595959595959593;2.2534246575342465;0.4674657534246575;1.86986301369863;1.7499999999999996;1.1374999999999997;1.5166666666666666;1.7499999999999998;1.1374999999999997;1.5166666666666666;1.75;1.1375;1.5166666666666664;1.7499999999999998;1.1375;1.5166666666666662;1.7499999999999991;1.1374999999999997;1.516666666666666;1.75;1.1375;1.5166666666666666;1.75;1.1375;1.5166666666666666;1.7500000000000007;1.1375000000000004;1.516666666666667;0.1852370603294775;-0.1969483504737563;3.0180058996879042;0.9839941003120974;3.0180058996879042;0.9839941003120974;2.0524767208203714;1.2828566125129615;6.191528213133909;5.810471786866091;12.202528213133917;11.821471786866093;20.771054489249455;20.389998062981622;2.9375282131339095;2.556471786866092;2.7415282131339107;2.360471786866093;2.691528213133909;2.310471786866092;1.8615282131339077;1.480471786866091;11.451828213133906;11.07077178686609;2.3237900077244498;9.291502622129176;4.645751311064588;6.645751311064588;9.291502622129176;2.322875655532294;4.662840029737026;1.9722632595691008;0.4930658148922752;-0.2371089858365863;6.900979901373621;1.7252449753434052;1.015372684337756;9.291502622129176;4.645751311064588;6.645751311064588;9.291502622129176;2.322875655532294;4.662840029737026;1.9722632595691008;0.4930658148922752;-0.2371089858365863;6.900979901373621;1.7252449753434052;1.015372684337756;9.291502622129176;4.645751311064588;6.645751311064588;9.291502622129176;2.322875655532294;4.662840029737026;1.9722632595691008;0.4930658148922752;-0.2371089858365863;6.900979901373621;1.7252449753434052;1.015372684337756;9.291502622129176;4.645751311064588;6.645751311064588;9.291502622129176;2.322875655532294;4.662840029737026;1.9722632595691008;0.4930658148922752;-0.2371089858365863;6.900979901373621;1.7252449753434052;1.015372684337756;9.291502622129176;4.645751311064588;6.645751311064588;9.291502622129176;2.322875655532294;4.662840029737026;1.9722632595691008;0.4930658148922752;-0.2371089858365863;6.900979901373621;1.7252449753434052;1.015372684337756;9.291502622129176;4.645751311064588;6.645751311064588;9.291502622129176;2.322875655532294;4.662840029737026;1.9722632595691008;0.4930658148922752;-0.2371089858365863;6.900979901373621;1.7252449753434052;1.015372684337756;9.291502622129176;4.645751311064588;6.645751311064588;9.291502622129176;2.322875655532294;4.662840029737026;1.9722632595691008;0.4930658148922752;-0.2371089858365863;6.900979901373621;1.7252449753434052;1.015372684337756;9.291502622129176;4.645751311064588;6.645751311064588;9.291502622129176;2.322875655532294;4.662840029737026;1.9722632595691008;0.4930658148922752;-0.2371089858365863;6.900979901373621;1.7252449753434052;1.015372684337756;4.754887502163469;13.0;3.0;13.0;13.0;0.2636462680271478;0.12304228876685724;3.0;0.0;1.0;0.0;0.5773502691896257;0.0;0.0;0.0;0.5773502691896257;0.0;0.0;0.0;0.0;0.0;0.0;0.0;0.0;0.0;3.5773502691896257;1.7320508075688772;1.7320508075688772;0.0;0.0;0.0;0.0;0.0;0.8943375672974064;0.5773502691896257;3.5773502691896257;1.7320508075688772;1.7320508075688772;0.0;0.0;0.0;0.0;0.0;0.8943375672974064;0.5773502691896257;5.666666666666669;4.83923070518691;6.709139018929373;13.439184268026219;12.62745098039216;12.800000000000004;7.992772455089819;16.07644822962088;0.40476190476190493;0.34565933608477933;0.47922421563781237;0.9599417334304442;0.9019607843137257;0.9142857142857146;0.5709123182207013;1.1483177306872057;9.291502622129176;4.645751311064588;6.645751311064588;9.291502622129176;2.322875655532294;4.662840029737026;1.9722632595691008;0.4930658148922752;-0.2371089858365863;6.900979901373621;1.7252449753434052;1.015372684337756;3.0;0.0;1.0;0.0;6.5;0.0;0.8333333333333333;0.0;2.1666666666666665;2.1666666666666665;9.0;2.0;0.75;0.25;0.0;1.5;0.375;1.5;0.375;3.232050807568877;0.8080127018922193;1.7320508075688772;0.4330127018922193;3.232050807568877;0.8080127018922193;1.7320508075688772;0.4330127018922193;0.18216275480421795;0.04554068870105449;0.18216275480421795;0.04554068870105449;0.41428571428571426;0.7;0.41428571428571426;0.41428571428571426;0.7;-1.5;-0.375;0.7142857142857143;0.00028571428571433355;3.0;0.863120568566631;1.0949143184120975;1.4299111709758698;1.4299111709758698;1.4299111709758698;1.4299111709758698;12.083687959932835;15.328800457769365;20.018756393662176;20.018756393662176;20.018756393662176;20.018756393662176;0.22669821601506376;0.2875787366365031;0.3755655042013012;0.3755655042013012;0.3755655042013012;0.3755655042013012;0.23324810949770525;0.295887624663732;0.3864165558395267;0.3864165558395267;0.3864165558395267;0.3864165558395267;2.944234353490973;2.712440603645507;2.377443751081734;2.377443751081734;2.377443751081734;2.377443751081734;6.551833020943683;9.335907750337583;9.673584577721865;9.673584577721865;9.673584577721865;9.673584577721865;15.860625373896726;13.671143071538427;14.163749912600718;14.163749912600718;14.163749912600718;14.163749912600718;4.0;1.0;0.0;-0.908933202819753;67.22;27.834077371019372;20.771211599071872;5.917906046161393;5.917906046161393;20.771211599071872;5.917906046161393;20.771211599071872;0.0;5.917906046161393;0.0;0.0;20.771211599071872;0.0;0.8333333333333333;0.0;6.5;1.5000000000000004;6.732050807568877;1.6830127018922192;6.732050807568877;1.6830127018922192;3.0;0.0;0.0;0.0;0.0;0.0;0.0;0.0;0.0;10.0;1.3862943611198906;1.3862943611198906;0.0;0.0;0.0;0.0;0.0;0.0;0.0;0.0;2.3978952727983707;13.34793;10.03207;0.0;0.0;1.6622999999999999;20.511999999999997;1.5;0.0;0.0;0.0;0.0;0.0;0.0;0.0;0.0;0.0;0.5;0.0;0.0;0.0;0.0;0.0;0.0;0.0;0.0;0.0;0.5;2.0;1.0;1.0;0.5;77.74039984317095;2.584962500721156;3.0;2.5649493574615367;2.9444389791664403;3.6109179126442243;4.007333185232471;4.6913478822291435;5.093750200806762;5.783825182329737;6.18826412308259;6.880384082186005;48.765210905138915;1.9459101490553132;2.9444389791664403;4.007333185232471;5.093750200806762;6.18826412308259;24.17969663734358;58.078250319999995;4.148446451428571;9.0;0.0;12.0;9.0;3.111111111111111;1.0