boiling_point;SMILES;IUPAC_name;InChIKey;SpAbs_A;SpMax_A;SpDiam_A;SpAD_A;SpMAD_A;LogEE_A;VE1_A;VE2_A;VE3_A;VR1_A;VR2_A;VR3_A;nAtom;nHeavyAtom;nH;nC;ATS0dv;ATS1dv;ATS2dv;ATS3dv;ATS4dv;ATS5dv;ATS6dv;ATS7dv;ATS8dv;ATS0d;ATS1d;ATS2d;ATS3d;ATS4d;ATS5d;ATS6d;ATS7d;ATS8d;ATS0s;ATS1s;ATS2s;ATS3s;ATS4s;ATS5s;ATS6s;ATS7s;ATS8s;ATS0Z;ATS1Z;ATS2Z;ATS3Z;ATS4Z;ATS5Z;ATS6Z;ATS7Z;ATS8Z;ATS0m;ATS1m;ATS2m;ATS3m;ATS4m;ATS5m;ATS6m;ATS7m;ATS8m;ATS0v;ATS1v;ATS2v;ATS3v;ATS4v;ATS5v;ATS6v;ATS7v;ATS8v;ATS0se;ATS1se;ATS2se;ATS3se;ATS4se;ATS5se;ATS6se;ATS7se;ATS8se;ATS0pe;ATS1pe;ATS2pe;ATS3pe;ATS4pe;ATS5pe;ATS6pe;ATS7pe;ATS8pe;ATS0are;ATS1are;ATS2are;ATS3are;ATS4are;ATS5are;ATS6are;ATS7are;ATS8are;ATS0p;ATS1p;ATS2p;ATS3p;ATS4p;ATS5p;ATS6p;ATS7p;ATS8p;ATS0i;ATS1i;ATS2i;ATS3i;ATS4i;ATS5i;ATS6i;ATS7i;ATS8i;AATS0dv;AATS1dv;AATS2dv;AATS3dv;AATS0d;AATS1d;AATS2d;AATS3d;AATS0s;AATS1s;AATS2s;AATS3s;AATS0Z;AATS1Z;AATS2Z;AATS3Z;AATS0m;AATS1m;AATS2m;AATS3m;AATS0v;AATS1v;AATS2v;AATS3v;AATS0se;AATS1se;AATS2se;AATS3se;AATS0pe;AATS1pe;AATS2pe;AATS3pe;AATS0are;AATS1are;AATS2are;AATS3are;AATS0p;AATS1p;AATS2p;AATS3p;AATS0i;AATS1i;AATS2i;AATS3i;ATSC0c;ATSC1c;ATSC2c;ATSC3c;ATSC4c;ATSC5c;ATSC6c;ATSC7c;ATSC8c;ATSC0dv;ATSC1dv;ATSC2dv;ATSC3dv;ATSC4dv;ATSC5dv;ATSC6dv;ATSC7dv;ATSC8dv;ATSC0d;ATSC1d;ATSC2d;ATSC3d;ATSC4d;ATSC5d;ATSC6d;ATSC7d;ATSC8d;ATSC0s;ATSC1s;ATSC2s;ATSC3s;ATSC4s;ATSC5s;ATSC6s;ATSC7s;ATSC8s;ATSC0Z;ATSC1Z;ATSC2Z;ATSC3Z;ATSC4Z;ATSC5Z;ATSC6Z;ATSC7Z;ATSC8Z;ATSC0m;ATSC1m;ATSC2m;ATSC3m;ATSC4m;ATSC5m;ATSC6m;ATSC7m;ATSC8m;ATSC0v;ATSC1v;ATSC2v;ATSC3v;ATSC4v;ATSC5v;ATSC6v;ATSC7v;ATSC8v;ATSC0se;ATSC1se;ATSC2se;ATSC3se;ATSC4se;ATSC5se;ATSC6se;ATSC7se;ATSC8se;ATSC0pe;ATSC1pe;ATSC2pe;ATSC3pe;ATSC4pe;ATSC5pe;ATSC6pe;ATSC7pe;ATSC8pe;ATSC0are;ATSC1are;ATSC2are;ATSC3are;ATSC4are;ATSC5are;ATSC6are;ATSC7are;ATSC8are;ATSC0p;ATSC1p;ATSC2p;ATSC3p;ATSC4p;ATSC5p;ATSC6p;ATSC7p;ATSC8p;ATSC0i;ATSC1i;ATSC2i;ATSC3i;ATSC4i;ATSC5i;ATSC6i;ATSC7i;ATSC8i;AATSC0c;AATSC1c;AATSC2c;AATSC3c;AATSC0dv;AATSC1dv;AATSC2dv;AATSC3dv;AATSC0d;AATSC1d;AATSC2d;AATSC3d;AATSC0s;AATSC1s;AATSC2s;AATSC3s;AATSC0Z;AATSC1Z;AATSC2Z;AATSC3Z;AATSC0m;AATSC1m;AATSC2m;AATSC3m;AATSC0v;AATSC1v;AATSC2v;AATSC3v;AATSC0se;AATSC1se;AATSC2se;AATSC3se;AATSC0pe;AATSC1pe;AATSC2pe;AATSC3pe;AATSC0are;AATSC1are;AATSC2are;AATSC3are;AATSC0p;AATSC1p;AATSC2p;AATSC3p;AATSC0i;AATSC1i;AATSC2i;AATSC3i;MATS1c;MATS2c;MATS3c;MATS1dv;MATS2dv;MATS3dv;MATS1s;MATS2s;MATS3s;MATS1Z;MATS2Z;MATS3Z;MATS1m;MATS2m;MATS3m;MATS1v;MATS2v;MATS3v;MATS1se;MATS2se;MATS3se;MATS1pe;MATS2pe;MATS3pe;MATS1are;MATS2are;MATS3are;MATS1p;MATS2p;MATS3p;MATS1i;MATS2i;MATS3i;GATS1c;GATS2c;GATS3c;GATS1dv;GATS2dv;GATS3dv;GATS1s;GATS2s;GATS3s;GATS1Z;GATS2Z;GATS3Z;GATS1m;GATS2m;GATS3m;GATS1v;GATS2v;GATS3v;GATS1se;GATS2se;GATS3se;GATS1pe;GATS2pe;GATS3pe;GATS1are;GATS2are;GATS3are;GATS1p;GATS2p;GATS3p;GATS1i;GATS2i;GATS3i;BCUTc-1h;BCUTc-1l;BCUTdv-1h;BCUTdv-1l;BCUTd-1h;BCUTd-1l;BCUTs-1h;BCUTs-1l;BCUTZ-1h;BCUTZ-1l;BCUTm-1h;BCUTm-1l;BCUTv-1h;BCUTv-1l;BCUTse-1h;BCUTse-1l;BCUTpe-1h;BCUTpe-1l;BCUTare-1h;BCUTare-1l;BCUTp-1h;BCUTp-1l;BCUTi-1h;BCUTi-1l;BalabanJ;SpAbs_DzZ;SpMax_DzZ;SpDiam_DzZ;SpAD_DzZ;SpMAD_DzZ;LogEE_DzZ;VE1_DzZ;VE2_DzZ;VE3_DzZ;VR1_DzZ;VR2_DzZ;VR3_DzZ;SpAbs_Dzm;SpMax_Dzm;SpDiam_Dzm;SpAD_Dzm;SpMAD_Dzm;LogEE_Dzm;VE1_Dzm;VE2_Dzm;VE3_Dzm;VR1_Dzm;VR2_Dzm;VR3_Dzm;SpAbs_Dzv;SpMax_Dzv;SpDiam_Dzv;SpAD_Dzv;SpMAD_Dzv;LogEE_Dzv;VE1_Dzv;VE2_Dzv;VE3_Dzv;VR1_Dzv;VR2_Dzv;VR3_Dzv;SpAbs_Dzse;SpMax_Dzse;SpDiam_Dzse;SpAD_Dzse;SpMAD_Dzse;LogEE_Dzse;VE1_Dzse;VE2_Dzse;VE3_Dzse;VR1_Dzse;VR2_Dzse;VR3_Dzse;SpAbs_Dzpe;SpMax_Dzpe;SpDiam_Dzpe;SpAD_Dzpe;SpMAD_Dzpe;LogEE_Dzpe;VE1_Dzpe;VE2_Dzpe;VE3_Dzpe;VR1_Dzpe;VR2_Dzpe;VR3_Dzpe;SpAbs_Dzare;SpMax_Dzare;SpDiam_Dzare;SpAD_Dzare;SpMAD_Dzare;LogEE_Dzare;VE1_Dzare;VE2_Dzare;VE3_Dzare;VR1_Dzare;VR2_Dzare;VR3_Dzare;SpAbs_Dzp;SpMax_Dzp;SpDiam_Dzp;SpAD_Dzp;SpMAD_Dzp;LogEE_Dzp;VE1_Dzp;VE2_Dzp;VE3_Dzp;VR1_Dzp;VR2_Dzp;VR3_Dzp;SpAbs_Dzi;SpMax_Dzi;SpDiam_Dzi;SpAD_Dzi;SpMAD_Dzi;LogEE_Dzi;VE1_Dzi;VE2_Dzi;VE3_Dzi;VR1_Dzi;VR2_Dzi;VR3_Dzi;BertzCT;nBonds;nBondsO;nBondsS;nBondsKS;RNCG;RPCG;C1SP3;C2SP3;C3SP3;C4SP3;Xc-3d;Xc-4d;Xc-5d;Xc-6d;Xc-3dv;Xc-4dv;Xc-5dv;Xc-6dv;Xpc-4d;Xpc-5d;Xpc-6d;Xpc-4dv;Xpc-5dv;Xpc-6dv;Xp-0d;Xp-1d;Xp-2d;Xp-3d;Xp-4d;Xp-5d;Xp-6d;Xp-7d;AXp-0d;AXp-1d;Xp-0dv;Xp-1dv;Xp-2dv;Xp-3dv;Xp-4dv;Xp-5dv;Xp-6dv;Xp-7dv;AXp-0dv;AXp-1dv;SZ;Sm;Sv;Sse;Spe;Sare;Sp;Si;MZ;Mm;Mv;Mse;Mpe;Mare;Mp;Mi;SpAbs_D;SpMax_D;SpDiam_D;SpAD_D;SpMAD_D;LogEE_D;VE1_D;VE2_D;VE3_D;VR1_D;VR2_D;VR3_D;NsCH3;NssCH2;NsssCH;NssssC;SsCH3;SssCH2;SsssCH;SssssC;MAXsCH3;MINsCH3;ECIndex;ETA_alpha;ETA_shape_p;ETA_shape_y;ETA_shape_x;ETA_beta;AETA_beta;ETA_beta_s;AETA_beta_s;ETA_eta;AETA_eta;ETA_eta_L;AETA_eta_L;ETA_eta_R;AETA_eta_R;ETA_eta_RL;AETA_eta_RL;ETA_eta_B;AETA_eta_B;ETA_eta_BR;AETA_eta_BR;ETA_epsilon_1;ETA_epsilon_2;ETA_epsilon_3;ETA_epsilon_4;ETA_epsilon_5;ETA_dBeta;AETA_dBeta;ETA_psi_1;ETA_dPsi_B;fragCpx;IC0;IC1;IC2;IC3;IC4;IC5;TIC0;TIC1;TIC2;TIC3;TIC4;TIC5;SIC0;SIC1;SIC2;SIC3;SIC4;SIC5;BIC0;BIC1;BIC2;BIC3;BIC4;BIC5;CIC0;CIC1;CIC2;CIC3;CIC4;CIC5;MIC0;MIC1;MIC2;MIC3;MIC4;MIC5;ZMIC0;ZMIC1;ZMIC2;ZMIC3;ZMIC4;ZMIC5;Kier1;Lipinski;GhoseFilter;FilterItLogS;VMcGowan;LabuteASA;PEOE_VSA6;PEOE_VSA7;SMR_VSA4;SMR_VSA5;SlogP_VSA4;SlogP_VSA5;EState_VSA3;EState_VSA4;EState_VSA5;EState_VSA7;EState_VSA8;VSA_EState4;VSA_EState5;VSA_EState7;VSA_EState8;MDEC-11;MID;AMID;MID_C;AMID_C;MPC2;MPC3;MPC4;MPC5;MPC6;MPC7;MPC8;MPC9;MPC10;TMPC10;piPC1;piPC2;piPC3;piPC4;piPC5;piPC6;piPC7;piPC8;piPC9;piPC10;TpiPC10;apol;bpol;nRot;RotRatio;SLogP;SMR;GGI1;GGI2;GGI3;GGI4;GGI5;GGI6;GGI7;GGI8;GGI9;GGI10;JGI1;JGI2;JGI3;JGI4;JGI5;JGI6;JGI7;JGI8;JGI9;JGI10;JGT10;Diameter;Radius;TopoShapeIndex;PetitjeanIndex;Vabc;VAdjMat;MWC01;MWC02;MWC03;MWC04;MWC05;MWC06;MWC07;MWC08;MWC09;MWC10;TMWC10;SRW02;SRW04;SRW06;SRW08;SRW10;TSRW10;MW;AMW;WPath;WPol;Zagreb1;Zagreb2;mZagreb1;mZagreb2
80.4;CC(C)CC(C)C;2,4-dimethylpentane;BZHMBWZPUJHVEE-UHFFFAOYSA-N;6.828427124746191;1.9999999999999998;4.0;6.828427124746191;0.9754895892494558;2.7651082188712897;2.5;0.35714285714285715;0.5596157879354228;15.313708498984763;2.187672642712109;2.3720734636346843;23.0;7.0;16.0;7.0;26.0;24.0;19.0;12.0;4.0;0.0;0.0;0.0;0.0;42.0;46.0;88.0;78.0;87.0;36.0;36.0;0.0;0.0;37.80555555555556;44.33333333333333;67.1111111111111;87.33333333333333;83.0;60.0;36.0;0.0;0.0;268.0;312.0;397.0;364.0;283.0;156.0;36.0;0.0;0.0;1026.1058709999998;1059.2981339999997;1289.4136149999997;1004.9544999999998;814.4606439999999;302.76288;36.578304;0.0;0.0;3461.9582231401932;4376.8872724242765;5892.912549998811;6092.452474489837;4866.454479455618;3126.6837260636103;1119.0147995134894;0.0;0.0;160.27903600000005;159.125208;296.711548;379.656976;432.938128;251.444736;241.86470400000002;0.0;0.0;122.95750000000004;128.775;231.85750000000002;294.19;323.89;192.72;174.24;0.0;0.0;121.19000000000003;125.5;227.67;289.44;321.12;190.08;174.24;0.0;0.0;26.63610647758399;34.55010896;49.800242583037;56.129913017584;48.090663868507;32.060418298188;16.006064574564;0.0;0.0;3846.242925017984;3210.7268999463995;6660.186018629038;8672.026478986583;10908.597224809108;5893.952969400589;6657.0354728729635;0.0;0.0;1.1304347826086956;1.0909090909090908;0.4523809523809524;0.2222222222222222;1.826086956521739;2.090909090909091;2.0952380952380953;1.4444444444444444;1.643719806763285;2.015151515151515;1.5978835978835977;1.6172839506172838;11.652173913043478;14.181818181818182;9.452380952380953;6.7407407407407405;44.61329873913042;48.149915181818166;30.70032416666666;18.610268518518517;150.51992274522578;198.94942147383074;140.30744166663837;112.82319397203402;6.968653739130437;7.232963999999999;7.064560666666667;7.030684740740741;5.3459782608695665;5.853409090909091;5.520416666666667;5.447962962962963;5.26913043478261;5.704545454545454;5.420714285714285;5.36;1.1580915859819125;1.5704594981818183;1.185720061500881;1.039442833658963;167.22795326165146;145.94213181574543;158.57585758640568;160.593082944196;0.032282747000993026;-0.006651722035527703;0.0009850067168656147;-0.024281406656979178;0.021048650766972748;-0.026799207843484753;0.01955730555165676;0.0;0.0;19.739130434782602;4.945179584120982;-10.262759924385634;-7.735349716446122;-3.89413988657845;-2.7221172022684312;9.799621928166353;0.0;0.0;7.913043478260867;0.6918714555765588;-3.1455576559546334;-2.665406427221172;-2.240075614366729;1.7013232514177705;1.7013232514177705;0.0;0.0;3.3115942028985517;-1.8656794791010283;1.513127494223903;-3.1301197227473216;3.5849086326402;-3.574669187145557;1.8166351606805275;0.0;0.0;121.73913043478264;-12.09829867674859;-1.6540642722117305;-94.51795841209832;63.279773156899815;-99.24385633270322;83.36483931947072;0.0;0.0;589.5388264347828;-58.58770945935696;-8.010038402646245;-457.7164801512285;306.4411834612473;-480.60230415879005;403.7059354933832;0.0;0.0;1096.2726219649105;-108.94634752446282;-14.89500845061005;-851.1433400348682;569.840466153344;-893.7005070366117;750.7084259107534;0.0;0.0;0.11548660869565203;-0.011476930056709505;-0.001569111531190031;-0.08966351606805205;0.060029724007560126;-0.0941466918714553;0.07908322117202071;0.0;0.0;0.5965217391304339;-0.05928166351607157;-0.008104914933839996;-0.46313799621928303;0.31007088846881203;-0.48629489603024534;0.40848771266541106;0.0;0.0;0.43826086956521704;-0.04355387523629763;-0.005954631379964173;-0.34026465028355524;0.22780718336484176;-0.35727788279773154;0.30011342155009835;0.0;0.0;4.900848691438608;-0.48704086374544553;-0.06658761809019387;-3.805006748011338;2.547452017793587;-3.9952570854119083;3.356015951745994;0.0;0.0;26.621487874186418;-2.6456137017826453;-0.3617049982906808;-20.668857045175873;13.837799791745327;-21.702299897434592;18.229931913845256;0.0;0.0;0.001403597695695349;-0.0003023510016148956;2.345254087775273e-05;-0.00044965567883294773;0.8582230623818523;0.22478089018731737;-0.2443514267710865;-0.14324721697122447;0.3440453686200377;0.03144870252620722;-0.07489422990368175;-0.04935937828187356;0.14398235664776313;-0.08480361268641037;0.03602684510056912;-0.05796518005087633;5.293005671077506;-0.5499226671249359;-0.039382482671707866;-1.750332563187006;25.632122888468817;-2.6630777026980437;-0.19071520006300582;-8.47623111391164;47.66402704195263;-4.952106705657401;-0.3546430583478583;-15.76191370434941;0.005021156899810958;-0.0005216786389413412;-3.7359798361667404e-05;-0.0016604354827417045;0.025935727788279735;-0.002694621068912344;-0.00019297416509142848;-0.008576629559616352;0.019054820415879;-0.0019797216016498925;-0.0001417769376181946;-0.006301197227473245;0.21308037788863513;-0.022138221079338435;-0.0015854194783379491;-0.07046308792613588;1.1574559945298442;-0.12025516826284752;-0.008612023768825734;-0.38275661194770133;-0.21541144057315473;0.01670887673133022;-0.3203593737806659;0.261914297156588;-0.28471785189846877;-0.16691140479686734;-0.5889861415025524;0.2502170817269285;-0.40258529864656767;-0.10389610389610393;-0.007440476190476234;-0.3306878306878307;-0.1038961038961033;-0.007440476190475948;-0.3306878306878304;-0.10389610389610357;-0.007440476190476117;-0.3306878306878306;-0.10389610389609254;-0.007440476190471955;-0.3306878306878278;-0.1038961038961102;-0.007440476190478558;-0.33068783068783214;-0.10389610389611051;-0.007440476190478671;-0.33068783068783225;-0.1038961038961026;-0.007440476190475675;-0.33068783068783036;-0.10389610389610955;-0.00744047619047834;-0.330687830687832;1.7524533090937782;1.0413656237920563;1.445014526440958;1.4185022026431722;2.122928466540802;1.0526186979931476;2.1976659372720637;0.5755791740474453;1.5378069535618766;1.6428571428571428;1.1832482993197277;1.4222883597883595;1.6428571428571423;1.1832482993197277;1.4222883597883595;1.6428571428571428;1.1832482993197277;1.4222883597883598;1.6428571428571432;1.183248299319728;1.42228835978836;1.6428571428571417;1.183248299319727;1.4222883597883589;1.6428571428571421;1.1832482993197275;1.4222883597883593;1.6428571428571432;1.1832482993197282;1.42228835978836;1.6428571428571421;1.1832482993197275;1.4222883597883593;0.20869711451876002;-0.21471481897706624;3.032553478023272;0.9871887527804414;3.032553478023272;0.9871887527804414;2.040102140939388;1.2290890095974905;6.2136171116309304;5.791027960001698;12.224617111630915;11.802027960001686;20.793143387746472;20.370554236117194;2.9596171116309256;2.5370279600016987;2.7636171116309227;2.3410279600017034;2.713617111630921;2.291027960001699;1.8836171116309204;1.4610279600016995;11.473917111630914;11.051327960001696;2.9532231745612925;28.351942130093803;14.175971065046895;21.64007268018465;28.351942130093793;4.050277447156256;14.175972910950263;2.6066842372331616;0.3723834624618802;0.6014040625541923;17.86587344802266;2.5522676354318086;2.526217437918462;28.351942130093803;14.175971065046895;21.64007268018465;28.351942130093793;4.050277447156256;14.175972910950263;2.6066842372331616;0.3723834624618802;0.6014040625541923;17.86587344802266;2.5522676354318086;2.526217437918462;28.351942130093803;14.175971065046895;21.64007268018465;28.351942130093793;4.050277447156256;14.175972910950263;2.6066842372331616;0.3723834624618802;0.6014040625541923;17.86587344802266;2.5522676354318086;2.526217437918462;28.351942130093803;14.175971065046895;21.64007268018465;28.351942130093793;4.050277447156256;14.175972910950263;2.6066842372331616;0.3723834624618802;0.6014040625541923;17.86587344802266;2.5522676354318086;2.526217437918462;28.351942130093803;14.175971065046895;21.64007268018465;28.351942130093793;4.050277447156256;14.175972910950263;2.6066842372331616;0.3723834624618802;0.6014040625541923;17.86587344802266;2.5522676354318086;2.526217437918462;28.351942130093803;14.175971065046895;21.64007268018465;28.351942130093793;4.050277447156256;14.175972910950263;2.6066842372331616;0.3723834624618802;0.6014040625541923;17.86587344802266;2.5522676354318086;2.526217437918462;28.351942130093803;14.175971065046895;21.64007268018465;28.351942130093793;4.050277447156256;14.175972910950263;2.6066842372331616;0.3723834624618802;0.6014040625541923;17.86587344802266;2.5522676354318086;2.526217437918462;28.351942130093803;14.175971065046895;21.64007268018465;28.351942130093793;4.050277447156256;14.175972910950263;2.6066842372331616;0.3723834624618802;0.6014040625541923;17.86587344802266;2.5522676354318086;2.526217437918462;29.302968908806456;22.0;6.0;22.0;22.0;0.15951045200707967;0.07551053773850329;4.0;1.0;2.0;0.0;0.816496580927726;0.0;0.0;0.0;0.816496580927726;0.0;0.0;0.0;0.4714045207910317;0.9428090415820634;0.23570226039551584;0.4714045207910317;0.9428090415820634;0.23570226039551584;5.8618073195657985;3.125897657686229;3.0233959606302196;0.9428090415820634;0.9428090415820634;0.0;0.0;0.0;0.8374010456522569;0.5209829429477049;5.8618073195657985;3.125897657686229;3.0233959606302196;0.9428090415820634;0.9428090415820634;0.0;0.0;0.0;0.8374010456522569;0.5209829429477049;9.666666666666663;8.34276912829906;11.334622430286997;22.10269482884195;20.803921568627455;21.08;13.38843592814371;26.322317167393408;0.4202898550724636;0.3627290925347418;0.49280967088204336;0.9609867316887805;0.9045183290707589;0.9165217391304347;0.5821059099192918;1.1444485724953655;28.351942130093803;14.175971065046895;21.64007268018465;28.351942130093793;4.050277447156256;14.175972910950263;2.6066842372331616;0.3723834624618802;0.6014040625541923;17.86587344802266;2.5522676354318086;2.526217437918462;4.0;1.0;2.0;0.0;9.055555555555555;1.3611111111111112;1.7499999999999996;0.0;2.263888888888889;2.263888888888889;38.0;3.5;0.5714285714285714;0.2857142857142857;0.0;3.0;0.42857142857142855;3.0;0.42857142857142855;7.476578245645492;1.0680826065207847;3.125897657686229;0.4465568082408899;7.476578245645492;1.0680826065207847;3.125897657686229;0.4465568082408899;0.28831590468686574;0.041187986383837964;0.28831590468686574;0.041187986383837964;0.42173913043478256;0.7;0.42173913043478256;0.42173913043478256;0.7;-3.0;-0.42857142857142855;0.7142857142857144;0.00028571428571444457;6.0;0.8865408928220899;1.306170651709187;2.0444510861155405;2.0444510861155405;2.0444510861155405;2.0444510861155405;20.39044053490807;30.041924989311298;47.02237498065743;47.02237498065743;47.02237498065743;47.02237498065743;0.19598292262472913;0.28874826174542273;0.45195602624123166;0.45195602624123166;0.45195602624123166;0.45195602624123166;0.1988013201316891;0.2929007020200309;0.45845552997632444;0.45845552997632444;0.45845552997632444;0.45845552997632444;3.637021063234923;3.217391304347826;2.4791108699414726;2.4791108699414726;2.4791108699414726;2.4791108699414726;6.640762870645904;11.680935904638826;12.42512258252043;12.42512258252043;12.42512258252043;12.42512258252043;27.765075162887893;21.217420313642563;22.491983638261004;22.491983638261004;22.491983638261004;22.491983638261004;7.0;1.0;0.0;-1.8515922783610679;109.49000000000004;46.92890371420919;27.694948798762496;18.256633715248796;11.835812092322787;34.11577042168851;11.835812092322787;34.11577042168851;0.0;11.835812092322787;6.4208216229260096;0.0;27.694948798762496;0.0;1.7499999999999996;1.3611111111111112;9.055555555555555;1.88988157484231;12.5091624342836;1.787023204897657;12.5091624342836;1.787023204897657;7.0;4.0;4.0;0.0;0.0;0.0;0.0;0.0;0.0;28.0;1.9459101490553132;2.0794415416798357;1.6094379124341003;1.6094379124341003;0.0;0.0;0.0;0.0;0.0;0.0;3.367295829986474;22.358688;16.051312;2.0;0.3333333333333333;2.6885000000000012;34.292999999999985;2.5;0.44444444444444464;0.5;0.0;0.0;0.0;0.0;0.0;0.0;0.0;0.41666666666666663;0.06349206349206352;0.125;0.0;0.0;0.0;0.0;0.0;0.0;0.0;0.6051587301587302;4.0;2.0;1.0;0.5;129.62835551474285;3.584962500721156;6.0;3.295836866004329;3.8918202981106265;4.653960350157523;5.262690188904886;6.0330862217988015;6.645090969505644;7.417580402414544;8.030409562130485;8.803424211600703;67.03389907062754;2.5649493574615367;3.713572066704308;4.976733742420574;6.300785794663244;7.655864017616056;32.21190497886572;100.12520051199999;4.353269587478261;48.0;4.0;26.0;24.0;4.472222222222222;1.6666666666666665