boiling_point;SMILES;IUPAC_name;InChIKey;SpAbs_A;SpMax_A;SpDiam_A;SpAD_A;SpMAD_A;LogEE_A;VE1_A;VE2_A;VE3_A;VR1_A;VR2_A;VR3_A;nAtom;nHeavyAtom;nH;nC;ATS0dv;ATS1dv;ATS2dv;ATS3dv;ATS4dv;ATS5dv;ATS6dv;ATS7dv;ATS8dv;ATS0d;ATS1d;ATS2d;ATS3d;ATS4d;ATS5d;ATS6d;ATS7d;ATS8d;ATS0s;ATS1s;ATS2s;ATS3s;ATS4s;ATS5s;ATS6s;ATS7s;ATS8s;ATS0Z;ATS1Z;ATS2Z;ATS3Z;ATS4Z;ATS5Z;ATS6Z;ATS7Z;ATS8Z;ATS0m;ATS1m;ATS2m;ATS3m;ATS4m;ATS5m;ATS6m;ATS7m;ATS8m;ATS0v;ATS1v;ATS2v;ATS3v;ATS4v;ATS5v;ATS6v;ATS7v;ATS8v;ATS0se;ATS1se;ATS2se;ATS3se;ATS4se;ATS5se;ATS6se;ATS7se;ATS8se;ATS0pe;ATS1pe;ATS2pe;ATS3pe;ATS4pe;ATS5pe;ATS6pe;ATS7pe;ATS8pe;ATS0are;ATS1are;ATS2are;ATS3are;ATS4are;ATS5are;ATS6are;ATS7are;ATS8are;ATS0p;ATS1p;ATS2p;ATS3p;ATS4p;ATS5p;ATS6p;ATS7p;ATS8p;ATS0i;ATS1i;ATS2i;ATS3i;ATS4i;ATS5i;ATS6i;ATS7i;ATS8i;AATS0dv;AATS1dv;AATS2dv;AATS3dv;AATS0d;AATS1d;AATS2d;AATS3d;AATS0s;AATS1s;AATS2s;AATS3s;AATS0Z;AATS1Z;AATS2Z;AATS3Z;AATS0m;AATS1m;AATS2m;AATS3m;AATS0v;AATS1v;AATS2v;AATS3v;AATS0se;AATS1se;AATS2se;AATS3se;AATS0pe;AATS1pe;AATS2pe;AATS3pe;AATS0are;AATS1are;AATS2are;AATS3are;AATS0p;AATS1p;AATS2p;AATS3p;AATS0i;AATS1i;AATS2i;AATS3i;ATSC0c;ATSC1c;ATSC2c;ATSC3c;ATSC4c;ATSC5c;ATSC6c;ATSC7c;ATSC8c;ATSC0dv;ATSC1dv;ATSC2dv;ATSC3dv;ATSC4dv;ATSC5dv;ATSC6dv;ATSC7dv;ATSC8dv;ATSC0d;ATSC1d;ATSC2d;ATSC3d;ATSC4d;ATSC5d;ATSC6d;ATSC7d;ATSC8d;ATSC0s;ATSC1s;ATSC2s;ATSC3s;ATSC4s;ATSC5s;ATSC6s;ATSC7s;ATSC8s;ATSC0Z;ATSC1Z;ATSC2Z;ATSC3Z;ATSC4Z;ATSC5Z;ATSC6Z;ATSC7Z;ATSC8Z;ATSC0m;ATSC1m;ATSC2m;ATSC3m;ATSC4m;ATSC5m;ATSC6m;ATSC7m;ATSC8m;ATSC0v;ATSC1v;ATSC2v;ATSC3v;ATSC4v;ATSC5v;ATSC6v;ATSC7v;ATSC8v;ATSC0se;ATSC1se;ATSC2se;ATSC3se;ATSC4se;ATSC5se;ATSC6se;ATSC7se;ATSC8se;ATSC0pe;ATSC1pe;ATSC2pe;ATSC3pe;ATSC4pe;ATSC5pe;ATSC6pe;ATSC7pe;ATSC8pe;ATSC0are;ATSC1are;ATSC2are;ATSC3are;ATSC4are;ATSC5are;ATSC6are;ATSC7are;ATSC8are;ATSC0p;ATSC1p;ATSC2p;ATSC3p;ATSC4p;ATSC5p;ATSC6p;ATSC7p;ATSC8p;ATSC0i;ATSC1i;ATSC2i;ATSC3i;ATSC4i;ATSC5i;ATSC6i;ATSC7i;ATSC8i;AATSC0c;AATSC1c;AATSC2c;AATSC3c;AATSC0dv;AATSC1dv;AATSC2dv;AATSC3dv;AATSC0d;AATSC1d;AATSC2d;AATSC3d;AATSC0s;AATSC1s;AATSC2s;AATSC3s;AATSC0Z;AATSC1Z;AATSC2Z;AATSC3Z;AATSC0m;AATSC1m;AATSC2m;AATSC3m;AATSC0v;AATSC1v;AATSC2v;AATSC3v;AATSC0se;AATSC1se;AATSC2se;AATSC3se;AATSC0pe;AATSC1pe;AATSC2pe;AATSC3pe;AATSC0are;AATSC1are;AATSC2are;AATSC3are;AATSC0p;AATSC1p;AATSC2p;AATSC3p;AATSC0i;AATSC1i;AATSC2i;AATSC3i;MATS1c;MATS2c;MATS3c;MATS1dv;MATS2dv;MATS3dv;MATS1s;MATS2s;MATS3s;MATS1Z;MATS2Z;MATS3Z;MATS1m;MATS2m;MATS3m;MATS1v;MATS2v;MATS3v;MATS1se;MATS2se;MATS3se;MATS1pe;MATS2pe;MATS3pe;MATS1are;MATS2are;MATS3are;MATS1p;MATS2p;MATS3p;MATS1i;MATS2i;MATS3i;GATS1c;GATS2c;GATS3c;GATS1dv;GATS2dv;GATS3dv;GATS1s;GATS2s;GATS3s;GATS1Z;GATS2Z;GATS3Z;GATS1m;GATS2m;GATS3m;GATS1v;GATS2v;GATS3v;GATS1se;GATS2se;GATS3se;GATS1pe;GATS2pe;GATS3pe;GATS1are;GATS2are;GATS3are;GATS1p;GATS2p;GATS3p;GATS1i;GATS2i;GATS3i;BCUTc-1h;BCUTc-1l;BCUTdv-1h;BCUTdv-1l;BCUTd-1h;BCUTd-1l;BCUTs-1h;BCUTs-1l;BCUTZ-1h;BCUTZ-1l;BCUTm-1h;BCUTm-1l;BCUTv-1h;BCUTv-1l;BCUTse-1h;BCUTse-1l;BCUTpe-1h;BCUTpe-1l;BCUTare-1h;BCUTare-1l;BCUTp-1h;BCUTp-1l;BCUTi-1h;BCUTi-1l;BalabanJ;SpAbs_DzZ;SpMax_DzZ;SpDiam_DzZ;SpAD_DzZ;SpMAD_DzZ;LogEE_DzZ;VE1_DzZ;VE2_DzZ;VE3_DzZ;VR1_DzZ;VR2_DzZ;VR3_DzZ;SpAbs_Dzm;SpMax_Dzm;SpDiam_Dzm;SpAD_Dzm;SpMAD_Dzm;LogEE_Dzm;VE1_Dzm;VE2_Dzm;VE3_Dzm;VR1_Dzm;VR2_Dzm;VR3_Dzm;SpAbs_Dzv;SpMax_Dzv;SpDiam_Dzv;SpAD_Dzv;SpMAD_Dzv;LogEE_Dzv;VE1_Dzv;VE2_Dzv;VE3_Dzv;VR1_Dzv;VR2_Dzv;VR3_Dzv;SpAbs_Dzse;SpMax_Dzse;SpDiam_Dzse;SpAD_Dzse;SpMAD_Dzse;LogEE_Dzse;VE1_Dzse;VE2_Dzse;VE3_Dzse;VR1_Dzse;VR2_Dzse;VR3_Dzse;SpAbs_Dzpe;SpMax_Dzpe;SpDiam_Dzpe;SpAD_Dzpe;SpMAD_Dzpe;LogEE_Dzpe;VE1_Dzpe;VE2_Dzpe;VE3_Dzpe;VR1_Dzpe;VR2_Dzpe;VR3_Dzpe;SpAbs_Dzare;SpMax_Dzare;SpDiam_Dzare;SpAD_Dzare;SpMAD_Dzare;LogEE_Dzare;VE1_Dzare;VE2_Dzare;VE3_Dzare;VR1_Dzare;VR2_Dzare;VR3_Dzare;SpAbs_Dzp;SpMax_Dzp;SpDiam_Dzp;SpAD_Dzp;SpMAD_Dzp;LogEE_Dzp;VE1_Dzp;VE2_Dzp;VE3_Dzp;VR1_Dzp;VR2_Dzp;VR3_Dzp;SpAbs_Dzi;SpMax_Dzi;SpDiam_Dzi;SpAD_Dzi;SpMAD_Dzi;LogEE_Dzi;VE1_Dzi;VE2_Dzi;VE3_Dzi;VR1_Dzi;VR2_Dzi;VR3_Dzi;BertzCT;nBonds;nBondsO;nBondsS;nBondsKS;RNCG;RPCG;C1SP3;C2SP3;C3SP3;C4SP3;Xc-3d;Xc-4d;Xc-5d;Xc-6d;Xc-3dv;Xc-4dv;Xc-5dv;Xc-6dv;Xpc-4d;Xpc-5d;Xpc-6d;Xpc-4dv;Xpc-5dv;Xpc-6dv;Xp-0d;Xp-1d;Xp-2d;Xp-3d;Xp-4d;Xp-5d;Xp-6d;Xp-7d;AXp-0d;AXp-1d;Xp-0dv;Xp-1dv;Xp-2dv;Xp-3dv;Xp-4dv;Xp-5dv;Xp-6dv;Xp-7dv;AXp-0dv;AXp-1dv;SZ;Sm;Sv;Sse;Spe;Sare;Sp;Si;MZ;Mm;Mv;Mse;Mpe;Mare;Mp;Mi;SpAbs_D;SpMax_D;SpDiam_D;SpAD_D;SpMAD_D;LogEE_D;VE1_D;VE2_D;VE3_D;VR1_D;VR2_D;VR3_D;NsCH3;NssCH2;NsssCH;NssssC;SsCH3;SssCH2;SsssCH;SssssC;MAXsCH3;MINsCH3;ECIndex;ETA_alpha;ETA_shape_p;ETA_shape_y;ETA_shape_x;ETA_beta;AETA_beta;ETA_beta_s;AETA_beta_s;ETA_eta;AETA_eta;ETA_eta_L;AETA_eta_L;ETA_eta_R;AETA_eta_R;ETA_eta_RL;AETA_eta_RL;ETA_eta_B;AETA_eta_B;ETA_eta_BR;AETA_eta_BR;ETA_epsilon_1;ETA_epsilon_2;ETA_epsilon_3;ETA_epsilon_4;ETA_epsilon_5;ETA_dBeta;AETA_dBeta;ETA_psi_1;ETA_dPsi_B;fragCpx;IC0;IC1;IC2;IC3;IC4;IC5;TIC0;TIC1;TIC2;TIC3;TIC4;TIC5;SIC0;SIC1;SIC2;SIC3;SIC4;SIC5;BIC0;BIC1;BIC2;BIC3;BIC4;BIC5;CIC0;CIC1;CIC2;CIC3;CIC4;CIC5;MIC0;MIC1;MIC2;MIC3;MIC4;MIC5;ZMIC0;ZMIC1;ZMIC2;ZMIC3;ZMIC4;ZMIC5;Kier1;Lipinski;GhoseFilter;FilterItLogS;VMcGowan;LabuteASA;PEOE_VSA6;PEOE_VSA7;SMR_VSA4;SMR_VSA5;SlogP_VSA4;SlogP_VSA5;EState_VSA3;EState_VSA4;EState_VSA5;EState_VSA7;EState_VSA8;VSA_EState4;VSA_EState5;VSA_EState7;VSA_EState8;MDEC-11;MID;AMID;MID_C;AMID_C;MPC2;MPC3;MPC4;MPC5;MPC6;MPC7;MPC8;MPC9;MPC10;TMPC10;piPC1;piPC2;piPC3;piPC4;piPC5;piPC6;piPC7;piPC8;piPC9;piPC10;TpiPC10;apol;bpol;nRot;RotRatio;SLogP;SMR;GGI1;GGI2;GGI3;GGI4;GGI5;GGI6;GGI7;GGI8;GGI9;GGI10;JGI1;JGI2;JGI3;JGI4;JGI5;JGI6;JGI7;JGI8;JGI9;JGI10;JGT10;Diameter;Radius;TopoShapeIndex;PetitjeanIndex;Vabc;VAdjMat;MWC01;MWC02;MWC03;MWC04;MWC05;MWC06;MWC07;MWC08;MWC09;MWC10;TMWC10;SRW02;SRW04;SRW06;SRW08;SRW10;TSRW10;MW;AMW;WPath;WPol;Zagreb1;Zagreb2;mZagreb1;mZagreb2
117.6;CCCCCC(C)C;2-methylheptane;JVSWJIKNEAIKJW-UHFFFAOYSA-N;8.762572535069648;1.9498558243636475;3.899711648727295;8.762572535069648;1.095321566883706;2.8879854193082553;2.639270369830468;0.3299087962288085;0.7473589525811721;21.88172169528254;2.7352152119103175;2.862508111228037;26.0;8.0;18.0;8.0;28.0;26.0;21.0;16.0;12.0;7.0;2.0;0.0;0.0;46.0;54.0;94.0;96.0;89.0;63.0;48.0;27.0;18.0;40.77777777777778;48.416666666666664;75.16666666666666;92.91666666666666;83.66666666666666;62.33333333333333;50.99999999999999;39.0;18.0;306.0;360.0;433.0;398.0;313.0;240.0;176.0;87.0;18.0;1172.4021199999997;1227.7764309999995;1362.0561429999998;1135.1650849999996;881.0067879999999;675.1054829999998;478.348754;160.52601599999997;18.289152;3947.6426137513827;5029.877406914644;6581.332248221923;6597.333587807431;5368.371711093148;4081.8196662596506;3075.0213213045254;1843.0955629101777;559.5073997567447;181.25648000000004;180.900988;339.41733999999997;440.14686800000004;435.33313599999997;311.98206;249.09716;186.188544;120.932352;139.14000000000001;146.4975;265.5175;337.87250000000006;328.51;236.6475;188.34500000000003;139.92000000000002;87.12;137.12;142.75;260.67;333.09;325.08;233.91;186.3;138.60000000000002;87.12;30.314232287281996;39.566097580000005;56.481508443037;61.137853446074004;52.104252299413005;39.08120729637601;30.05967843698;20.031725292735;8.003032287282;4342.872585156481;3643.7663514622;7578.921304906438;10341.752259893276;10717.826598941014;7574.612575684176;6095.657420645579;4611.235352918535;3328.5177364364813;1.0769230769230769;1.04;0.4375;0.25396825396825395;1.7692307692307692;2.16;1.9583333333333333;1.5238095238095237;1.5683760683760684;1.9366666666666665;1.565972222222222;1.4748677248677247;11.76923076923077;14.4;9.020833333333334;6.317460317460317;45.09238923076922;49.11105723999998;28.37616964583333;18.018493412698408;151.83240822120703;201.19509627658576;137.11108850462338;104.71958075884811;6.971403076923078;7.23603952;7.071194583333333;6.986458222222223;5.351538461538462;5.8599;5.531614583333333;5.363055555555556;5.273846153846154;5.71;5.430625;5.2871428571428565;1.1659320110493074;1.5826439032000001;1.1766980925632708;0.9704421181916508;167.03356096755698;145.750654058488;157.89419385221746;164.15479777608374;0.03723115193777274;-0.005538723952007146;-0.009032187261652608;-0.011893958468286493;0.004983633830073978;0.00032165070491070374;0.001271053001536191;-0.008391271265272499;0.009664227441811502;20.461538461538467;3.094674556213021;-10.31360946745562;-4.502958579881657;1.1893491124260351;-2.568047337278107;-3.7159763313609475;1.3668639053254432;5.218934911242604;6.615384615384615;0.7928994082840228;-3.1360946745562144;-0.5680473372781065;-0.1834319526627215;-1.7573964497041414;-0.8520710059171592;1.437869822485208;0.9585798816568053;3.0170940170940166;-1.2407955292570672;0.26331360946745597;-1.1760355029585798;0.4201183431952658;-0.05522682445759383;0.8481262327416172;-1.3254437869822486;0.7573964497041416;138.46153846153845;-11.982248520710046;-34.46745562130177;-48.96449704142012;18.343195266272183;-3.1065088757396486;-3.2544378698224854;-28.402366863905332;42.603550295857985;670.5194344615384;-58.025720289940644;-166.91349169822468;-237.11744957988162;88.82949772781058;-15.043705260355054;-15.760072177514814;-137.5424480946746;206.31367214201168;1246.8595205864642;-107.9013046661365;-310.3827652741947;-440.9300227714954;165.18224418025815;-27.974412320850092;-29.306527193271542;-255.76605550491564;383.64908325737366;0.13135015384615373;-0.01136684023668524;-0.03269720710059083;-0.04644968047337251;0.01740108875739583;-0.0029469585798819076;-0.003087289940828684;-0.02694362130177543;0.04041543195266192;0.6784615384615371;-0.05871301775148015;-0.1688905325443791;-0.2399260355029583;0.08988165680473405;-0.01522189349112401;-0.015946745562129896;-0.13917159763313552;0.20875739644970437;0.49846153846153785;-0.04313609467455701;-0.12408284023668692;-0.17627218934911237;0.06603550295858025;-0.01118343195266254;-0.011715976331360733;-0.10224852071005881;0.15337278106508914;5.574042193009846;-0.4823690359335448;-1.3875553749693317;-1.9711623567160885;0.7384414871081425;-0.1250586389457336;-0.13101381222886377;-1.143393270360994;1.7150899055414912;30.278285659102124;-2.620236258960829;-7.537222818985942;-10.707385206370528;4.011225877915274;-0.6793205115824041;-0.7116691073720409;-6.210930391610672;9.316395587416082;0.0014319673822220285;-0.00022154895808028583;-0.000188170567951096;-0.00018879299156010306;0.7869822485207103;0.12378698224852083;-0.21486686390532542;-0.07147553301399455;0.2544378698224852;0.03171597633136091;-0.06533530571992113;-0.009016624401239785;0.1160420775805391;-0.04963182117028268;0.005485700197238666;-0.018667230205691745;5.325443786982248;-0.4792899408284018;-0.7180719921104535;-0.7772142387527002;25.789209017751475;-2.3210288115976256;-3.4773644103796806;-3.763769040950502;47.9561354071717;-4.31605218664546;-6.466307609879056;-6.998889250341197;0.005051928994082836;-0.0004546736094674096;-0.0006811918145956424;-0.0007372965154503572;0.026094674556212966;-0.002348520710059206;-0.0035185527613412313;-0.003808349769888227;0.01917159763313607;-0.0017254437869822802;-0.0025850591715976443;-0.0027979712595097204;0.21438623819268637;-0.019294761437341792;-0.02890740364519441;-0.03128829137644585;1.1645494484270047;-0.10480945035843316;-0.15702547539554046;-0.16995849533921473;-0.15471648365097634;-0.13140702105875196;-0.13184168431766027;0.15729323308270687;-0.27302631578947356;-0.09082229382981259;-0.4277053824362605;0.047273371104815935;-0.16086604613516797;-0.0899999999999999;-0.13483796296296294;-0.14594356261022928;-0.08999999999999972;-0.13483796296296283;-0.14594356261022928;-0.09000000000000015;-0.134837962962963;-0.14594356261022928;-0.08999999999999098;-0.13483796296295944;-0.14594356261022853;-0.09000000000000151;-0.13483796296296355;-0.1459435626102294;-0.09000000000000176;-0.13483796296296371;-0.14594356261022942;-0.0900000000000001;-0.134837962962963;-0.14594356261022928;-0.09000000000000234;-0.13483796296296388;-0.14594356261022945;1.688873585050867;1.240863904815741;1.1410257830091826;1.4661654135338342;1.8327067669172927;1.0278672872657832;2.034702549575071;0.8343661473087819;1.1508498583569409;1.625;1.316550925925926;1.146384479717813;1.6250000000000007;1.3165509259259263;1.1463844797178133;1.6249999999999998;1.3165509259259258;1.1463844797178129;1.625;1.3165509259259258;1.1463844797178129;1.6249999999999998;1.3165509259259256;1.1463844797178129;1.6250000000000002;1.316550925925926;1.146384479717813;1.6250000000000002;1.3165509259259258;1.146384479717813;1.6250000000000002;1.316550925925926;1.146384479717813;0.20263343490313282;-0.20488216335598777;3.021907437179538;0.9871405513215671;3.021907437179538;0.9871405513215671;2.0369104184821034;1.2513504164917133;6.205785225690168;5.799271160771954;12.216785225690177;11.810271160771963;20.785311501805698;20.378797436887513;2.951785225690164;2.5452711607719545;2.7557852256901656;2.349271160771954;2.705785225690168;2.299271160771954;1.8757852256901653;1.4692711607719529;11.46608522569016;11.059571160771968;2.7158427612932585;40.958433934704104;20.479216967352052;32.49588583122391;40.958433934704104;5.119804241838013;20.47921697130593;2.7848787274253093;0.34810984092816366;0.8010607762068082;21.655761394151206;2.7069701742689007;2.8521279829352078;40.958433934704104;20.479216967352052;32.49588583122391;40.958433934704104;5.119804241838013;20.47921697130593;2.7848787274253093;0.34810984092816366;0.8010607762068082;21.655761394151206;2.7069701742689007;2.8521279829352078;40.958433934704104;20.479216967352052;32.49588583122391;40.958433934704104;5.119804241838013;20.47921697130593;2.7848787274253093;0.34810984092816366;0.8010607762068082;21.655761394151206;2.7069701742689007;2.8521279829352078;40.958433934704104;20.479216967352052;32.49588583122391;40.958433934704104;5.119804241838013;20.47921697130593;2.7848787274253093;0.34810984092816366;0.8010607762068082;21.655761394151206;2.7069701742689007;2.8521279829352078;40.958433934704104;20.479216967352052;32.49588583122391;40.958433934704104;5.119804241838013;20.47921697130593;2.7848787274253093;0.34810984092816366;0.8010607762068082;21.655761394151206;2.7069701742689007;2.8521279829352078;40.958433934704104;20.479216967352052;32.49588583122391;40.958433934704104;5.119804241838013;20.47921697130593;2.7848787274253093;0.34810984092816366;0.8010607762068082;21.655761394151206;2.7069701742689007;2.8521279829352078;40.958433934704104;20.479216967352052;32.49588583122391;40.958433934704104;5.119804241838013;20.47921697130593;2.7848787274253093;0.34810984092816366;0.8010607762068082;21.655761394151206;2.7069701742689007;2.8521279829352078;40.958433934704104;20.479216967352052;32.49588583122391;40.958433934704104;5.119804241838013;20.47921697130593;2.7848787274253093;0.34810984092816366;0.8010607762068082;21.655761394151206;2.7069701742689007;2.8521279829352078;37.30296890880646;25.0;7.0;25.0;25.0;0.14470263732201458;0.06573534340939416;3.0;4.0;1.0;0.0;0.408248290463863;0.0;0.0;0.0;0.408248290463863;0.0;0.0;0.0;0.28867513459481287;0.2041241452319315;0.14433756729740643;0.28867513459481287;0.2041241452319315;0.14433756729740643;6.405777393935816;3.770055610029662;2.889628765898712;1.385027805014831;0.8025858577612694;0.4330127018922193;0.28867513459481287;0.0;0.800722174241977;0.5385793728613802;6.405777393935816;3.770055610029662;2.889628765898712;1.385027805014831;0.8025858577612694;0.4330127018922193;0.28867513459481287;0.0;0.800722174241977;0.5385793728613802;11.0;9.510615269336444;12.87645023407287;24.990531682447198;23.529411764705884;23.84;15.186990419161678;29.737606813317583;0.4230769230769231;0.36579289497447864;0.4952480859258796;0.9611742954787383;0.904977375565611;0.916923076923077;0.584115016121603;1.1437541082045224;40.958433934704104;20.479216967352052;32.49588583122391;40.958433934704104;5.119804241838013;20.47921697130593;2.7848787274253093;0.34810984092816366;0.8010607762068082;21.655761394151206;2.7069701742689007;2.8521279829352078;3.0;4.0;1.0;0.0;6.825046296296296;5.604074074074074;0.9042129629629628;0.0;2.287361111111111;2.250324074074074;65.0;4.0;0.375;0.125;0.0;3.5;0.4375;3.5;0.4375;8.408734396534339;1.0510917995667923;3.770055610029662;0.47125695125370776;8.408734396534339;1.0510917995667923;3.770055610029662;0.47125695125370776;0.14415795234343287;0.01801974404292911;0.14415795234343287;0.01801974404292911;0.4230769230769231;0.7;0.4230769230769231;0.4230769230769231;0.7;-3.5;-0.4375;0.7142857142857143;0.00028571428571433355;7.0;0.8904916402194913;1.322995967059358;2.5262349099495225;3.382568083276076;3.53641423712223;3.53641423712223;23.152782645706775;34.39789514354331;65.68210765868758;87.94677016517797;91.94677016517798;91.94677016517798;0.1894485821789581;0.2814621708588937;0.5374465074404967;0.719628010592549;0.7523581726776819;0.7523581726776819;0.19175693730143042;0.28489167471905225;0.5439950779509543;0.7283963897771274;0.7615253557827731;0.7615253557827731;3.8099480779216;3.3774437510817337;2.1742048081915692;1.317871634865016;1.1640254810188617;1.1640254810188617;6.654519640635535;11.849329110309174;16.767195010369562;18.47676346446734;18.631840387544266;18.631840387544266;31.72521615294554;24.13720727697972;20.305074362997342;16.91284041638038;16.38962819541389;16.38962819541389;8.0;1.0;0.0;-2.6520022005496857;123.58000000000004;53.29384582860579;46.4544980907759;5.917906046161393;5.917906046161393;46.4544980907759;5.917906046161393;46.4544980907759;0.0;5.917906046161393;25.683286491704038;0.0;20.771211599071872;0.0;0.9042129629629628;5.604074074074074;6.825046296296296;0.7211247851537042;14.665959166031307;1.8332448957539134;14.665959166031307;1.8332448957539134;7.0;5.0;4.0;3.0;2.0;0.0;0.0;0.0;0.0;36.0;2.0794415416798357;2.0794415416798357;1.791759469228055;1.6094379124341003;1.3862943611198906;1.0986122886681098;0.0;0.0;0.0;0.0;3.6109179126442243;25.362274;18.057726;4.0;0.5714285714285714;3.2227000000000023;38.98;1.5;0.44444444444444464;0.25;0.16000000000000003;0.1111111111111111;0.0;0.0;0.0;0.0;0.0;0.21428571428571427;0.06349206349206352;0.05;0.04000000000000001;0.037037037037037035;0.0;0.0;0.0;0.0;0.0;0.40481481481481485;6.0;3.0;1.0;0.5;146.92434073860016;3.807354922057604;7.0;3.367295829986474;3.970291913552122;4.653960350157523;5.2832037287379885;5.973809611869261;6.610696044717759;7.3031700512368;7.942717540573791;8.635687085464026;68.74083215629574;2.70805020110221;3.7612001156935624;4.948759890378168;6.19644412779452;7.475905969367397;33.09036030433586;114.14085057599999;4.3900327144615385;79.0;5.0;28.0;26.0;4.111111111111111;2.0833333333333335