boiling_point;SMILES;IUPAC_name;InChIKey;SpAbs_A;SpMax_A;SpDiam_A;SpAD_A;SpMAD_A;LogEE_A;VE1_A;VE2_A;VE3_A;VR1_A;VR2_A;VR3_A;nAtom;nHeavyAtom;nH;nC;ATS0dv;ATS1dv;ATS2dv;ATS3dv;ATS4dv;ATS5dv;ATS6dv;ATS7dv;ATS8dv;ATS0d;ATS1d;ATS2d;ATS3d;ATS4d;ATS5d;ATS6d;ATS7d;ATS8d;ATS0s;ATS1s;ATS2s;ATS3s;ATS4s;ATS5s;ATS6s;ATS7s;ATS8s;ATS0Z;ATS1Z;ATS2Z;ATS3Z;ATS4Z;ATS5Z;ATS6Z;ATS7Z;ATS8Z;ATS0m;ATS1m;ATS2m;ATS3m;ATS4m;ATS5m;ATS6m;ATS7m;ATS8m;ATS0v;ATS1v;ATS2v;ATS3v;ATS4v;ATS5v;ATS6v;ATS7v;ATS8v;ATS0se;ATS1se;ATS2se;ATS3se;ATS4se;ATS5se;ATS6se;ATS7se;ATS8se;ATS0pe;ATS1pe;ATS2pe;ATS3pe;ATS4pe;ATS5pe;ATS6pe;ATS7pe;ATS8pe;ATS0are;ATS1are;ATS2are;ATS3are;ATS4are;ATS5are;ATS6are;ATS7are;ATS8are;ATS0p;ATS1p;ATS2p;ATS3p;ATS4p;ATS5p;ATS6p;ATS7p;ATS8p;ATS0i;ATS1i;ATS2i;ATS3i;ATS4i;ATS5i;ATS6i;ATS7i;ATS8i;AATS0dv;AATS1dv;AATS2dv;AATS3dv;AATS0d;AATS1d;AATS2d;AATS3d;AATS0s;AATS1s;AATS2s;AATS3s;AATS0Z;AATS1Z;AATS2Z;AATS3Z;AATS0m;AATS1m;AATS2m;AATS3m;AATS0v;AATS1v;AATS2v;AATS3v;AATS0se;AATS1se;AATS2se;AATS3se;AATS0pe;AATS1pe;AATS2pe;AATS3pe;AATS0are;AATS1are;AATS2are;AATS3are;AATS0p;AATS1p;AATS2p;AATS3p;AATS0i;AATS1i;AATS2i;AATS3i;ATSC0c;ATSC1c;ATSC2c;ATSC3c;ATSC4c;ATSC5c;ATSC6c;ATSC7c;ATSC8c;ATSC0dv;ATSC1dv;ATSC2dv;ATSC3dv;ATSC4dv;ATSC5dv;ATSC6dv;ATSC7dv;ATSC8dv;ATSC0d;ATSC1d;ATSC2d;ATSC3d;ATSC4d;ATSC5d;ATSC6d;ATSC7d;ATSC8d;ATSC0s;ATSC1s;ATSC2s;ATSC3s;ATSC4s;ATSC5s;ATSC6s;ATSC7s;ATSC8s;ATSC0Z;ATSC1Z;ATSC2Z;ATSC3Z;ATSC4Z;ATSC5Z;ATSC6Z;ATSC7Z;ATSC8Z;ATSC0m;ATSC1m;ATSC2m;ATSC3m;ATSC4m;ATSC5m;ATSC6m;ATSC7m;ATSC8m;ATSC0v;ATSC1v;ATSC2v;ATSC3v;ATSC4v;ATSC5v;ATSC6v;ATSC7v;ATSC8v;ATSC0se;ATSC1se;ATSC2se;ATSC3se;ATSC4se;ATSC5se;ATSC6se;ATSC7se;ATSC8se;ATSC0pe;ATSC1pe;ATSC2pe;ATSC3pe;ATSC4pe;ATSC5pe;ATSC6pe;ATSC7pe;ATSC8pe;ATSC0are;ATSC1are;ATSC2are;ATSC3are;ATSC4are;ATSC5are;ATSC6are;ATSC7are;ATSC8are;ATSC0p;ATSC1p;ATSC2p;ATSC3p;ATSC4p;ATSC5p;ATSC6p;ATSC7p;ATSC8p;ATSC0i;ATSC1i;ATSC2i;ATSC3i;ATSC4i;ATSC5i;ATSC6i;ATSC7i;ATSC8i;AATSC0c;AATSC1c;AATSC2c;AATSC3c;AATSC0dv;AATSC1dv;AATSC2dv;AATSC3dv;AATSC0d;AATSC1d;AATSC2d;AATSC3d;AATSC0s;AATSC1s;AATSC2s;AATSC3s;AATSC0Z;AATSC1Z;AATSC2Z;AATSC3Z;AATSC0m;AATSC1m;AATSC2m;AATSC3m;AATSC0v;AATSC1v;AATSC2v;AATSC3v;AATSC0se;AATSC1se;AATSC2se;AATSC3se;AATSC0pe;AATSC1pe;AATSC2pe;AATSC3pe;AATSC0are;AATSC1are;AATSC2are;AATSC3are;AATSC0p;AATSC1p;AATSC2p;AATSC3p;AATSC0i;AATSC1i;AATSC2i;AATSC3i;MATS1c;MATS2c;MATS3c;MATS1dv;MATS2dv;MATS3dv;MATS1s;MATS2s;MATS3s;MATS1Z;MATS2Z;MATS3Z;MATS1m;MATS2m;MATS3m;MATS1v;MATS2v;MATS3v;MATS1se;MATS2se;MATS3se;MATS1pe;MATS2pe;MATS3pe;MATS1are;MATS2are;MATS3are;MATS1p;MATS2p;MATS3p;MATS1i;MATS2i;MATS3i;GATS1c;GATS2c;GATS3c;GATS1dv;GATS2dv;GATS3dv;GATS1s;GATS2s;GATS3s;GATS1Z;GATS2Z;GATS3Z;GATS1m;GATS2m;GATS3m;GATS1v;GATS2v;GATS3v;GATS1se;GATS2se;GATS3se;GATS1pe;GATS2pe;GATS3pe;GATS1are;GATS2are;GATS3are;GATS1p;GATS2p;GATS3p;GATS1i;GATS2i;GATS3i;BCUTc-1h;BCUTc-1l;BCUTdv-1h;BCUTdv-1l;BCUTd-1h;BCUTd-1l;BCUTs-1h;BCUTs-1l;BCUTZ-1h;BCUTZ-1l;BCUTm-1h;BCUTm-1l;BCUTv-1h;BCUTv-1l;BCUTse-1h;BCUTse-1l;BCUTpe-1h;BCUTpe-1l;BCUTare-1h;BCUTare-1l;BCUTp-1h;BCUTp-1l;BCUTi-1h;BCUTi-1l;BalabanJ;SpAbs_DzZ;SpMax_DzZ;SpDiam_DzZ;SpAD_DzZ;SpMAD_DzZ;LogEE_DzZ;VE1_DzZ;VE2_DzZ;VE3_DzZ;VR1_DzZ;VR2_DzZ;VR3_DzZ;SpAbs_Dzm;SpMax_Dzm;SpDiam_Dzm;SpAD_Dzm;SpMAD_Dzm;LogEE_Dzm;VE1_Dzm;VE2_Dzm;VE3_Dzm;VR1_Dzm;VR2_Dzm;VR3_Dzm;SpAbs_Dzv;SpMax_Dzv;SpDiam_Dzv;SpAD_Dzv;SpMAD_Dzv;LogEE_Dzv;VE1_Dzv;VE2_Dzv;VE3_Dzv;VR1_Dzv;VR2_Dzv;VR3_Dzv;SpAbs_Dzse;SpMax_Dzse;SpDiam_Dzse;SpAD_Dzse;SpMAD_Dzse;LogEE_Dzse;VE1_Dzse;VE2_Dzse;VE3_Dzse;VR1_Dzse;VR2_Dzse;VR3_Dzse;SpAbs_Dzpe;SpMax_Dzpe;SpDiam_Dzpe;SpAD_Dzpe;SpMAD_Dzpe;LogEE_Dzpe;VE1_Dzpe;VE2_Dzpe;VE3_Dzpe;VR1_Dzpe;VR2_Dzpe;VR3_Dzpe;SpAbs_Dzare;SpMax_Dzare;SpDiam_Dzare;SpAD_Dzare;SpMAD_Dzare;LogEE_Dzare;VE1_Dzare;VE2_Dzare;VE3_Dzare;VR1_Dzare;VR2_Dzare;VR3_Dzare;SpAbs_Dzp;SpMax_Dzp;SpDiam_Dzp;SpAD_Dzp;SpMAD_Dzp;LogEE_Dzp;VE1_Dzp;VE2_Dzp;VE3_Dzp;VR1_Dzp;VR2_Dzp;VR3_Dzp;SpAbs_Dzi;SpMax_Dzi;SpDiam_Dzi;SpAD_Dzi;SpMAD_Dzi;LogEE_Dzi;VE1_Dzi;VE2_Dzi;VE3_Dzi;VR1_Dzi;VR2_Dzi;VR3_Dzi;BertzCT;nBonds;nBondsO;nBondsS;nBondsKS;RNCG;RPCG;C1SP3;C2SP3;C3SP3;C4SP3;Xc-3d;Xc-4d;Xc-5d;Xc-6d;Xc-3dv;Xc-4dv;Xc-5dv;Xc-6dv;Xpc-4d;Xpc-5d;Xpc-6d;Xpc-4dv;Xpc-5dv;Xpc-6dv;Xp-0d;Xp-1d;Xp-2d;Xp-3d;Xp-4d;Xp-5d;Xp-6d;Xp-7d;AXp-0d;AXp-1d;Xp-0dv;Xp-1dv;Xp-2dv;Xp-3dv;Xp-4dv;Xp-5dv;Xp-6dv;Xp-7dv;AXp-0dv;AXp-1dv;SZ;Sm;Sv;Sse;Spe;Sare;Sp;Si;MZ;Mm;Mv;Mse;Mpe;Mare;Mp;Mi;SpAbs_D;SpMax_D;SpDiam_D;SpAD_D;SpMAD_D;LogEE_D;VE1_D;VE2_D;VE3_D;VR1_D;VR2_D;VR3_D;NsCH3;NssCH2;NsssCH;NssssC;SsCH3;SssCH2;SsssCH;SssssC;MAXsCH3;MINsCH3;ECIndex;ETA_alpha;ETA_shape_p;ETA_shape_y;ETA_shape_x;ETA_beta;AETA_beta;ETA_beta_s;AETA_beta_s;ETA_eta;AETA_eta;ETA_eta_L;AETA_eta_L;ETA_eta_R;AETA_eta_R;ETA_eta_RL;AETA_eta_RL;ETA_eta_B;AETA_eta_B;ETA_eta_BR;AETA_eta_BR;ETA_epsilon_1;ETA_epsilon_2;ETA_epsilon_3;ETA_epsilon_4;ETA_epsilon_5;ETA_dBeta;AETA_dBeta;ETA_psi_1;ETA_dPsi_B;fragCpx;IC0;IC1;IC2;IC3;IC4;IC5;TIC0;TIC1;TIC2;TIC3;TIC4;TIC5;SIC0;SIC1;SIC2;SIC3;SIC4;SIC5;BIC0;BIC1;BIC2;BIC3;BIC4;BIC5;CIC0;CIC1;CIC2;CIC3;CIC4;CIC5;MIC0;MIC1;MIC2;MIC3;MIC4;MIC5;ZMIC0;ZMIC1;ZMIC2;ZMIC3;ZMIC4;ZMIC5;Kier1;Lipinski;GhoseFilter;FilterItLogS;VMcGowan;LabuteASA;PEOE_VSA6;PEOE_VSA7;SMR_VSA4;SMR_VSA5;SlogP_VSA4;SlogP_VSA5;EState_VSA3;EState_VSA4;EState_VSA5;EState_VSA7;EState_VSA8;VSA_EState4;VSA_EState5;VSA_EState7;VSA_EState8;MDEC-11;MID;AMID;MID_C;AMID_C;MPC2;MPC3;MPC4;MPC5;MPC6;MPC7;MPC8;MPC9;MPC10;TMPC10;piPC1;piPC2;piPC3;piPC4;piPC5;piPC6;piPC7;piPC8;piPC9;piPC10;TpiPC10;apol;bpol;nRot;RotRatio;SLogP;SMR;GGI1;GGI2;GGI3;GGI4;GGI5;GGI6;GGI7;GGI8;GGI9;GGI10;JGI1;JGI2;JGI3;JGI4;JGI5;JGI6;JGI7;JGI8;JGI9;JGI10;JGT10;Diameter;Radius;TopoShapeIndex;PetitjeanIndex;Vabc;VAdjMat;MWC01;MWC02;MWC03;MWC04;MWC05;MWC06;MWC07;MWC08;MWC09;MWC10;TMWC10;SRW02;SRW04;SRW06;SRW08;SRW10;TSRW10;MW;AMW;WPath;WPol;Zagreb1;Zagreb2;mZagreb1;mZagreb2
109.1;CC(C)CCC(C)C;2,5-dimethylhexane;UWNADWZGEHDQAB-UHFFFAOYSA-N;8.472135954999578;1.9999999999999996;3.999999999999999;8.472135954999578;1.0590169943749472;2.8992282685088373;2.6832815729997477;0.33541019662496846;0.7638969616967951;19.35731457317289;2.419664321646611;2.739926810849707;26.0;8.0;18.0;8.0;30.0;28.0;22.0;17.0;12.0;4.0;0.0;0.0;0.0;48.0;54.0;100.0;97.0;96.0;69.0;36.0;36.0;0.0;42.05555555555556;49.58333333333333;76.33333333333333;100.1111111111111;93.33333333333333;65.0;60.0;36.0;0.0;306.0;360.0;458.0;428.0;322.0;265.0;156.0;36.0;0.0;1172.4021199999997;1227.7764309999998;1483.1221519999997;1201.7112289999995;890.151364;796.1714919999998;302.76288;36.578304;0.0;3947.6426137513827;5029.877406914644;6806.459661661145;7099.250819444962;5648.125410971521;4306.9470796988735;3126.6837260636103;1119.0147995134894;0.0;181.25648000000004;180.90098799999998;339.441056;442.541876;495.799312;312.00577599999997;251.44473599999998;241.86470400000002;0.0;139.14000000000001;146.4975;265.64;342.4925;372.07000000000005;236.77;192.72;174.24;0.0;137.12;142.75;260.76;337.05;368.64;234.00000000000003;190.08;174.24;0.0;30.314232287281996;39.566097580000005;57.487932727886005;65.15144187698002;56.105768443054004;40.087631581225;32.060418298188;16.006064574564;0.0;4342.872585156481;3643.7663514622;7584.3882175948875;10150.981634025182;12382.085467159255;7580.079488372626;5893.952969400589;6657.0354728729635;0.0;1.1538461538461537;1.12;0.4583333333333333;0.2698412698412698;1.8461538461538463;2.16;2.0833333333333335;1.5396825396825398;1.6175213675213675;1.9833333333333332;1.5902777777777777;1.5890652557319223;11.76923076923077;14.4;9.541666666666666;6.7936507936507935;45.09238923076922;49.111057239999994;30.89837816666666;19.074781412698407;151.83240822120703;201.19509627658576;141.80124295127385;112.68652094357083;6.971403076923078;7.236039519999999;7.071688666666667;7.0244742222222225;5.351538461538462;5.8599;5.534166666666667;5.436388888888889;5.273846153846154;5.71;5.4325;5.3500000000000005;1.1659320110493074;1.5826439032000001;1.1976652651642918;1.034149871063175;167.03356096755698;145.750654058488;158.00808786656015;161.12669260357433;0.036533857151372987;-0.006633473936052292;-0.0008213539358799199;-0.023991939114649724;0.009361556339359537;0.011068385310239607;-0.026807130979166104;0.01955702774046241;0.0;22.461538461538467;5.094674556213022;-12.544378698224849;-6.733727810650888;3.7988165680473367;-8.79881656804734;-2.485207100591716;10.437869822485206;0.0;8.615384615384617;0.792899408284023;-4.5207100591716;0.4319526627218937;-1.704142011834319;-3.1420118343195265;1.9171597633136106;1.9171597633136106;0.0;3.4871794871794877;-1.8359631821170272;1.382642998027614;-2.5244904667981585;0.3944773175542393;2.650394477317554;-3.5207100591715967;1.7100591715976314;0.0;138.46153846153845;-11.982248520710048;-9.467455621301772;-95.11834319526626;39.64497041420117;21.89349112426035;-99.40828402366863;85.20710059171597;0.0;670.5194344615384;-58.02572028994065;-45.84748269822468;-460.62392773372767;191.98633379881636;106.02230373964495;-481.3985683313609;412.62734428402337;0.0;1246.8595205864642;-107.90130466613648;-85.25535183497198;-856.5498629669835;357.00678580894504;197.15300111837254;-895.181194267205;767.2981665147473;0.0;0.13135015384615373;-0.011366840236685239;-0.008981207100590846;-0.09023306508875667;0.03760880473372679;0.020769041420118067;-0.09430267455621279;0.08083086390532385;0.0;0.6784615384615371;-0.058713017751480134;-0.046390532544379345;-0.46607988165680436;0.19426035502958627;0.10727810650887573;-0.4871005917159755;0.41751479289940874;0.0;0.49846153846153785;-0.04313609467455702;-0.034082840236687;-0.3424260355029587;0.14272189349112482;0.07881656804733736;-0.3578698224852067;0.3067455621301783;0.0;5.574042193009846;-0.48236903593354497;-0.38113109012033164;-3.8291764210527037;1.595986439878888;0.881365645903266;-4.001876446263479;3.4301798110829824;0.0;30.278285659102124;-2.620236258960829;-2.0703101305369493;-20.800147092737927;8.669423671623315;4.787592176866591;-21.73825637063743;18.632791174832164;0.0;0.0014051483519758841;-0.0002653389574420917;-1.7111540330831665e-05;-0.00038082443039126547;0.8639053254437872;0.20378698224852088;-0.26134122287968437;-0.10688456842302997;0.33136094674556216;0.031715976331360925;-0.094181459566075;0.00685639147177609;0.13412228796844183;-0.07343852728468109;0.028805062458908626;-0.04007127725076442;5.325443786982248;-0.47928994082840193;-0.19723865877712024;-1.5098149713534328;25.789209017751475;-2.321028811597626;-0.9551558895463476;-7.311490916408376;47.9561354071717;-4.316052186645459;-1.7761531632285827;-13.5960295709045;0.005051928994082836;-0.00045467360946740954;-0.00018710848126230929;-0.001432270874424709;0.026094674556212966;-0.0023485207100592052;-0.0009664694280079031;-0.007398093359631815;0.01917159763313607;-0.0017254437869822809;-0.0007100591715976458;-0.00543533389687236;0.21438623819268637;-0.0192947614373418;-0.007940231044173575;-0.060780578111947675;1.1645494484270047;-0.10480945035843316;-0.043131461052853114;-0.3301610649640941;-0.18883341183795915;-0.01217774643280181;-0.2710207999431233;0.23589041095890423;-0.302511415525114;-0.1237225483800826;-0.5475490196078427;0.21476715686274517;-0.2987667289137876;-0.08999999999999991;-0.03703703703703702;-0.28350970017636684;-0.08999999999999975;-0.0370370370370369;-0.28350970017636684;-0.09000000000000012;-0.03703703703703706;-0.2835097001763669;-0.08999999999999096;-0.03703703703703348;-0.28350970017636484;-0.09000000000000147;-0.037037037037037625;-0.2835097001763672;-0.0900000000000018;-0.03703703703703774;-0.2835097001763673;-0.09000000000000011;-0.03703703703703706;-0.28350970017636684;-0.09000000000000234;-0.03703703703703797;-0.28350970017636734;1.7224015553864978;1.0929695339664547;1.385112436792375;1.424657534246575;2.0637128995433787;1.0246792781039353;2.1587009803921564;0.6223192401960782;1.419282990974167;1.625;1.222511574074074;1.361331569664903;1.6250000000000007;1.2225115740740744;1.361331569664903;1.6249999999999998;1.2225115740740737;1.3613315696649029;1.625;1.2225115740740737;1.3613315696649029;1.6249999999999998;1.222511574074074;1.3613315696649029;1.6250000000000002;1.2225115740740742;1.361331569664903;1.6250000000000002;1.2225115740740744;1.361331569664903;1.6250000000000002;1.2225115740740742;1.361331569664903;0.20868964396267892;-0.21221560072642442;3.0242761595227368;0.9871257554121624;3.0242761595227368;0.9871257554121624;2.03945491576884;1.2398385201804778;6.212779513592396;5.792607080965065;12.223779513592419;11.803607080965072;20.7923057897079;20.37213335708058;2.9587795135923973;2.538607080965067;2.762779513592396;2.3426070809650668;2.712779513592394;2.2926070809650643;1.8827795135923988;1.4626070809650649;11.473079513592403;11.052907080965078;2.9278193611827583;38.22296898751132;19.11148449375567;29.841472548148968;38.22296898751134;4.777871123438917;19.11148450872547;2.787812645177103;0.3484765806471379;0.8021137388873882;21.912959533995938;2.7391199417494922;2.8639346700308037;38.22296898751132;19.11148449375567;29.841472548148968;38.22296898751134;4.777871123438917;19.11148450872547;2.787812645177103;0.3484765806471379;0.8021137388873882;21.912959533995938;2.7391199417494922;2.8639346700308037;38.22296898751132;19.11148449375567;29.841472548148968;38.22296898751134;4.777871123438917;19.11148450872547;2.787812645177103;0.3484765806471379;0.8021137388873882;21.912959533995938;2.7391199417494922;2.8639346700308037;38.22296898751132;19.11148449375567;29.841472548148968;38.22296898751134;4.777871123438917;19.11148450872547;2.787812645177103;0.3484765806471379;0.8021137388873882;21.912959533995938;2.7391199417494922;2.8639346700308037;38.22296898751132;19.11148449375567;29.841472548148968;38.22296898751134;4.777871123438917;19.11148450872547;2.787812645177103;0.3484765806471379;0.8021137388873882;21.912959533995938;2.7391199417494922;2.8639346700308037;38.22296898751132;19.11148449375567;29.841472548148968;38.22296898751134;4.777871123438917;19.11148450872547;2.787812645177103;0.3484765806471379;0.8021137388873882;21.912959533995938;2.7391199417494922;2.8639346700308037;38.22296898751132;19.11148449375567;29.841472548148968;38.22296898751134;4.777871123438917;19.11148450872547;2.787812645177103;0.3484765806471379;0.8021137388873882;21.912959533995938;2.7391199417494922;2.8639346700308037;38.22296898751132;19.11148449375567;29.841472548148968;38.22296898751134;4.777871123438917;19.11148450872547;2.787812645177103;0.3484765806471379;0.8021137388873882;21.912959533995938;2.7391199417494922;2.8639346700308037;36.0;25.0;7.0;25.0;25.0;0.14049525921495687;0.06647700169163756;4.0;2.0;2.0;0.0;0.816496580927726;0.0;0.0;0.0;0.816496580927726;0.0;0.0;0.0;0.5773502691896257;0.3333333333333333;0.6666666666666666;0.5773502691896257;0.3333333333333333;0.6666666666666666;6.568914100752346;3.625897657686229;3.3650439694243293;1.3213672050459182;0.6666666666666666;0.6666666666666666;0.0;0.0;0.8211142625940433;0.5179853796694613;6.568914100752346;3.625897657686229;3.3650439694243293;1.3213672050459182;0.6666666666666666;0.6666666666666666;0.0;0.0;0.8211142625940433;0.5179853796694613;11.0;9.510615269336444;12.87645023407287;24.990531682447198;23.529411764705884;23.84;15.186990419161678;29.737606813317583;0.4230769230769231;0.36579289497447864;0.4952480859258796;0.9611742954787383;0.904977375565611;0.916923076923077;0.584115016121603;1.1437541082045224;38.22296898751132;19.11148449375567;29.841472548148968;38.22296898751134;4.777871123438917;19.11148450872547;2.787812645177103;0.3484765806471379;0.8021137388873882;21.912959533995938;2.7391199417494922;2.8639346700308037;4.0;2.0;2.0;0.0;9.120555555555555;2.7731481481481484;1.7729629629629629;0.0;2.2801388888888887;2.2801388888888887;56.0;4.0;0.5;0.25;0.0;3.5;0.4375;3.5;0.4375;8.879629932405987;1.1099537415507483;3.625897657686229;0.45323720721077865;8.879629932405987;1.1099537415507483;3.625897657686229;0.45323720721077865;0.28831590468686574;0.03603948808585822;0.28831590468686574;0.03603948808585822;0.4230769230769231;0.7;0.4230769230769231;0.4230769230769231;0.7;-3.5;-0.4375;0.7142857142857143;0.00028571428571433355;7.0;0.8904916402194913;1.3520301017579528;2.199687794731328;2.199687794731328;2.199687794731328;2.199687794731328;23.152782645706775;35.15278264570677;57.191882663014525;57.191882663014525;57.191882663014525;57.191882663014525;0.1894485821789581;0.2876390684343565;0.4679748973785904;0.4679748973785904;0.4679748973785904;0.4679748973785904;0.19175693730143042;0.29114383531836724;0.4736769841354703;0.4736769841354703;0.4736769841354703;0.4736769841354703;3.8099480779216;3.348409616383139;2.500751923409764;2.500751923409764;2.500751923409764;2.500751923409764;6.654519640635535;12.198058102173997;13.05249705669116;13.05249705669116;13.05249705669116;13.05249705669116;31.72521615294554;23.41346490856623;25.211570503215768;25.211570503215768;25.211570503215768;25.211570503215768;8.0;1.0;0.0;-2.278202200549686;123.58000000000004;53.29384582860579;40.53659204461451;11.835812092322787;11.835812092322787;40.53659204461451;11.835812092322787;40.53659204461451;0.0;11.835812092322787;12.841643245852019;0.0;27.694948798762496;0.0;1.7729629629629629;2.7731481481481484;9.120555555555555;1.628650569956944;14.501920711364173;1.8127400889205216;14.501920711364173;1.8127400889205216;8.0;5.0;4.0;4.0;0.0;0.0;0.0;0.0;0.0;36.0;2.0794415416798357;2.1972245773362196;1.791759469228055;1.6094379124341003;1.6094379124341003;0.0;0.0;0.0;0.0;0.0;3.6109179126442243;25.362274;18.057726;3.0;0.42857142857142855;3.0786000000000016;38.91;2.5;0.666666666666667;0.25;0.32000000000000006;0.0;0.0;0.0;0.0;0.0;0.0;0.3571428571428571;0.08333333333333337;0.05;0.08000000000000002;0.0;0.0;0.0;0.0;0.0;0.0;0.5704761904761905;5.0;3.0;0.6666666666666666;0.4;146.92434073860016;3.807354922057604;7.0;3.4339872044851463;4.04305126783455;4.77912349311153;5.424950017481403;6.150602768446279;6.814542897259958;7.529943370601589;8.204398418149381;8.912338567117548;70.29293800448737;2.70805020110221;3.8501476017100584;5.10594547390058;6.408528791059498;7.738488122494646;33.811160190266996;114.14085057599999;4.3900327144615385;74.0;5.0;30.0;28.0;4.722222222222222;1.9166666666666665