boiling_point;SMILES;IUPAC_name;InChIKey;SpAbs_A;SpMax_A;SpDiam_A;SpAD_A;SpMAD_A;LogEE_A;VE1_A;VE2_A;VE3_A;VR1_A;VR2_A;VR3_A;nAtom;nHeavyAtom;nH;nC;ATS0dv;ATS1dv;ATS2dv;ATS3dv;ATS4dv;ATS5dv;ATS6dv;ATS7dv;ATS8dv;ATS0d;ATS1d;ATS2d;ATS3d;ATS4d;ATS5d;ATS6d;ATS7d;ATS8d;ATS0s;ATS1s;ATS2s;ATS3s;ATS4s;ATS5s;ATS6s;ATS7s;ATS8s;ATS0Z;ATS1Z;ATS2Z;ATS3Z;ATS4Z;ATS5Z;ATS6Z;ATS7Z;ATS8Z;ATS0m;ATS1m;ATS2m;ATS3m;ATS4m;ATS5m;ATS6m;ATS7m;ATS8m;ATS0v;ATS1v;ATS2v;ATS3v;ATS4v;ATS5v;ATS6v;ATS7v;ATS8v;ATS0se;ATS1se;ATS2se;ATS3se;ATS4se;ATS5se;ATS6se;ATS7se;ATS8se;ATS0pe;ATS1pe;ATS2pe;ATS3pe;ATS4pe;ATS5pe;ATS6pe;ATS7pe;ATS8pe;ATS0are;ATS1are;ATS2are;ATS3are;ATS4are;ATS5are;ATS6are;ATS7are;ATS8are;ATS0p;ATS1p;ATS2p;ATS3p;ATS4p;ATS5p;ATS6p;ATS7p;ATS8p;ATS0i;ATS1i;ATS2i;ATS3i;ATS4i;ATS5i;ATS6i;ATS7i;ATS8i;AATS0dv;AATS1dv;AATS2dv;AATS3dv;AATS0d;AATS1d;AATS2d;AATS3d;AATS0s;AATS1s;AATS2s;AATS3s;AATS0Z;AATS1Z;AATS2Z;AATS3Z;AATS0m;AATS1m;AATS2m;AATS3m;AATS0v;AATS1v;AATS2v;AATS3v;AATS0se;AATS1se;AATS2se;AATS3se;AATS0pe;AATS1pe;AATS2pe;AATS3pe;AATS0are;AATS1are;AATS2are;AATS3are;AATS0p;AATS1p;AATS2p;AATS3p;AATS0i;AATS1i;AATS2i;AATS3i;ATSC0c;ATSC1c;ATSC2c;ATSC3c;ATSC4c;ATSC5c;ATSC6c;ATSC7c;ATSC8c;ATSC0dv;ATSC1dv;ATSC2dv;ATSC3dv;ATSC4dv;ATSC5dv;ATSC6dv;ATSC7dv;ATSC8dv;ATSC0d;ATSC1d;ATSC2d;ATSC3d;ATSC4d;ATSC5d;ATSC6d;ATSC7d;ATSC8d;ATSC0s;ATSC1s;ATSC2s;ATSC3s;ATSC4s;ATSC5s;ATSC6s;ATSC7s;ATSC8s;ATSC0Z;ATSC1Z;ATSC2Z;ATSC3Z;ATSC4Z;ATSC5Z;ATSC6Z;ATSC7Z;ATSC8Z;ATSC0m;ATSC1m;ATSC2m;ATSC3m;ATSC4m;ATSC5m;ATSC6m;ATSC7m;ATSC8m;ATSC0v;ATSC1v;ATSC2v;ATSC3v;ATSC4v;ATSC5v;ATSC6v;ATSC7v;ATSC8v;ATSC0se;ATSC1se;ATSC2se;ATSC3se;ATSC4se;ATSC5se;ATSC6se;ATSC7se;ATSC8se;ATSC0pe;ATSC1pe;ATSC2pe;ATSC3pe;ATSC4pe;ATSC5pe;ATSC6pe;ATSC7pe;ATSC8pe;ATSC0are;ATSC1are;ATSC2are;ATSC3are;ATSC4are;ATSC5are;ATSC6are;ATSC7are;ATSC8are;ATSC0p;ATSC1p;ATSC2p;ATSC3p;ATSC4p;ATSC5p;ATSC6p;ATSC7p;ATSC8p;ATSC0i;ATSC1i;ATSC2i;ATSC3i;ATSC4i;ATSC5i;ATSC6i;ATSC7i;ATSC8i;AATSC0c;AATSC1c;AATSC2c;AATSC3c;AATSC0dv;AATSC1dv;AATSC2dv;AATSC3dv;AATSC0d;AATSC1d;AATSC2d;AATSC3d;AATSC0s;AATSC1s;AATSC2s;AATSC3s;AATSC0Z;AATSC1Z;AATSC2Z;AATSC3Z;AATSC0m;AATSC1m;AATSC2m;AATSC3m;AATSC0v;AATSC1v;AATSC2v;AATSC3v;AATSC0se;AATSC1se;AATSC2se;AATSC3se;AATSC0pe;AATSC1pe;AATSC2pe;AATSC3pe;AATSC0are;AATSC1are;AATSC2are;AATSC3are;AATSC0p;AATSC1p;AATSC2p;AATSC3p;AATSC0i;AATSC1i;AATSC2i;AATSC3i;MATS1c;MATS2c;MATS3c;MATS1dv;MATS2dv;MATS3dv;MATS1s;MATS2s;MATS3s;MATS1Z;MATS2Z;MATS3Z;MATS1m;MATS2m;MATS3m;MATS1v;MATS2v;MATS3v;MATS1se;MATS2se;MATS3se;MATS1pe;MATS2pe;MATS3pe;MATS1are;MATS2are;MATS3are;MATS1p;MATS2p;MATS3p;MATS1i;MATS2i;MATS3i;GATS1c;GATS2c;GATS3c;GATS1dv;GATS2dv;GATS3dv;GATS1s;GATS2s;GATS3s;GATS1Z;GATS2Z;GATS3Z;GATS1m;GATS2m;GATS3m;GATS1v;GATS2v;GATS3v;GATS1se;GATS2se;GATS3se;GATS1pe;GATS2pe;GATS3pe;GATS1are;GATS2are;GATS3are;GATS1p;GATS2p;GATS3p;GATS1i;GATS2i;GATS3i;BCUTc-1h;BCUTc-1l;BCUTdv-1h;BCUTdv-1l;BCUTd-1h;BCUTd-1l;BCUTs-1h;BCUTs-1l;BCUTZ-1h;BCUTZ-1l;BCUTm-1h;BCUTm-1l;BCUTv-1h;BCUTv-1l;BCUTse-1h;BCUTse-1l;BCUTpe-1h;BCUTpe-1l;BCUTare-1h;BCUTare-1l;BCUTp-1h;BCUTp-1l;BCUTi-1h;BCUTi-1l;BalabanJ;SpAbs_DzZ;SpMax_DzZ;SpDiam_DzZ;SpAD_DzZ;SpMAD_DzZ;LogEE_DzZ;VE1_DzZ;VE2_DzZ;VE3_DzZ;VR1_DzZ;VR2_DzZ;VR3_DzZ;SpAbs_Dzm;SpMax_Dzm;SpDiam_Dzm;SpAD_Dzm;SpMAD_Dzm;LogEE_Dzm;VE1_Dzm;VE2_Dzm;VE3_Dzm;VR1_Dzm;VR2_Dzm;VR3_Dzm;SpAbs_Dzv;SpMax_Dzv;SpDiam_Dzv;SpAD_Dzv;SpMAD_Dzv;LogEE_Dzv;VE1_Dzv;VE2_Dzv;VE3_Dzv;VR1_Dzv;VR2_Dzv;VR3_Dzv;SpAbs_Dzse;SpMax_Dzse;SpDiam_Dzse;SpAD_Dzse;SpMAD_Dzse;LogEE_Dzse;VE1_Dzse;VE2_Dzse;VE3_Dzse;VR1_Dzse;VR2_Dzse;VR3_Dzse;SpAbs_Dzpe;SpMax_Dzpe;SpDiam_Dzpe;SpAD_Dzpe;SpMAD_Dzpe;LogEE_Dzpe;VE1_Dzpe;VE2_Dzpe;VE3_Dzpe;VR1_Dzpe;VR2_Dzpe;VR3_Dzpe;SpAbs_Dzare;SpMax_Dzare;SpDiam_Dzare;SpAD_Dzare;SpMAD_Dzare;LogEE_Dzare;VE1_Dzare;VE2_Dzare;VE3_Dzare;VR1_Dzare;VR2_Dzare;VR3_Dzare;SpAbs_Dzp;SpMax_Dzp;SpDiam_Dzp;SpAD_Dzp;SpMAD_Dzp;LogEE_Dzp;VE1_Dzp;VE2_Dzp;VE3_Dzp;VR1_Dzp;VR2_Dzp;VR3_Dzp;SpAbs_Dzi;SpMax_Dzi;SpDiam_Dzi;SpAD_Dzi;SpMAD_Dzi;LogEE_Dzi;VE1_Dzi;VE2_Dzi;VE3_Dzi;VR1_Dzi;VR2_Dzi;VR3_Dzi;BertzCT;nBonds;nBondsO;nBondsS;nBondsKS;RNCG;RPCG;C1SP3;C2SP3;C3SP3;C4SP3;Xc-3d;Xc-4d;Xc-5d;Xc-6d;Xc-3dv;Xc-4dv;Xc-5dv;Xc-6dv;Xpc-4d;Xpc-5d;Xpc-6d;Xpc-4dv;Xpc-5dv;Xpc-6dv;Xp-0d;Xp-1d;Xp-2d;Xp-3d;Xp-4d;Xp-5d;Xp-6d;Xp-7d;AXp-0d;AXp-1d;Xp-0dv;Xp-1dv;Xp-2dv;Xp-3dv;Xp-4dv;Xp-5dv;Xp-6dv;Xp-7dv;AXp-0dv;AXp-1dv;SZ;Sm;Sv;Sse;Spe;Sare;Sp;Si;MZ;Mm;Mv;Mse;Mpe;Mare;Mp;Mi;SpAbs_D;SpMax_D;SpDiam_D;SpAD_D;SpMAD_D;LogEE_D;VE1_D;VE2_D;VE3_D;VR1_D;VR2_D;VR3_D;NsCH3;NssCH2;NsssCH;NssssC;SsCH3;SssCH2;SsssCH;SssssC;MAXsCH3;MINsCH3;ECIndex;ETA_alpha;ETA_shape_p;ETA_shape_y;ETA_shape_x;ETA_beta;AETA_beta;ETA_beta_s;AETA_beta_s;ETA_eta;AETA_eta;ETA_eta_L;AETA_eta_L;ETA_eta_R;AETA_eta_R;ETA_eta_RL;AETA_eta_RL;ETA_eta_B;AETA_eta_B;ETA_eta_BR;AETA_eta_BR;ETA_epsilon_1;ETA_epsilon_2;ETA_epsilon_3;ETA_epsilon_4;ETA_epsilon_5;ETA_dBeta;AETA_dBeta;ETA_psi_1;ETA_dPsi_B;fragCpx;IC0;IC1;IC2;IC3;IC4;IC5;TIC0;TIC1;TIC2;TIC3;TIC4;TIC5;SIC0;SIC1;SIC2;SIC3;SIC4;SIC5;BIC0;BIC1;BIC2;BIC3;BIC4;BIC5;CIC0;CIC1;CIC2;CIC3;CIC4;CIC5;MIC0;MIC1;MIC2;MIC3;MIC4;MIC5;ZMIC0;ZMIC1;ZMIC2;ZMIC3;ZMIC4;ZMIC5;Kier1;Lipinski;GhoseFilter;FilterItLogS;VMcGowan;LabuteASA;PEOE_VSA6;PEOE_VSA7;SMR_VSA4;SMR_VSA5;SlogP_VSA4;SlogP_VSA5;EState_VSA3;EState_VSA4;EState_VSA5;EState_VSA7;EState_VSA8;VSA_EState4;VSA_EState5;VSA_EState7;VSA_EState8;MDEC-11;MID;AMID;MID_C;AMID_C;MPC2;MPC3;MPC4;MPC5;MPC6;MPC7;MPC8;MPC9;MPC10;TMPC10;piPC1;piPC2;piPC3;piPC4;piPC5;piPC6;piPC7;piPC8;piPC9;piPC10;TpiPC10;apol;bpol;nRot;RotRatio;SLogP;SMR;GGI1;GGI2;GGI3;GGI4;GGI5;GGI6;GGI7;GGI8;GGI9;GGI10;JGI1;JGI2;JGI3;JGI4;JGI5;JGI6;JGI7;JGI8;JGI9;JGI10;JGT10;Diameter;Radius;TopoShapeIndex;PetitjeanIndex;Vabc;VAdjMat;MWC01;MWC02;MWC03;MWC04;MWC05;MWC06;MWC07;MWC08;MWC09;MWC10;TMWC10;SRW02;SRW04;SRW06;SRW08;SRW10;TSRW10;MW;AMW;WPath;WPol;Zagreb1;Zagreb2;mZagreb1;mZagreb2
68.72;CCCCCC;hexane;VLKZOEOYAKHREP-UHFFFAOYSA-N;6.987918414869867;1.801937735804838;3.6038754716096757;6.987918414869867;1.164653069144978;2.5798304993279486;2.3418960180704143;0.3903160030117357;0.3401352416495056;12.628859982958033;2.104809997159672;2.0251590458905078;20.0;6.0;14.0;6.0;18.0;16.0;12.0;8.0;4.0;1.0;0.0;0.0;0.0;32.0;38.0;62.0;64.0;48.0;33.0;18.0;9.0;0.0;31.0;36.75;55.5;61.25;49.0;37.0;24.0;9.0;0.0;230.0;264.0;286.0;240.0;176.0;112.0;48.0;9.0;0.0;879.809622;890.8198369999998;853.5730599999998;675.1054829999998;478.3487539999999;281.592025;84.835296;9.144576;0.0;2976.2738325290024;3723.8971379339096;4529.110611458031;4081.819666259651;3075.0213213045254;2068.2229763494006;1061.424631394275;279.75369987837234;0.0;139.30159200000003;137.349428;253.93460799999997;311.98206;249.09715999999997;186.21226000000001;123.32736;60.466176;0.0;106.77500000000002;111.05250000000001;197.82999999999998;236.6475;188.34500000000003;140.04250000000002;91.74000000000001;43.56000000000001;0.0;105.26000000000002;108.25;194.40000000000003;233.91000000000003;186.3;138.69;91.08000000000001;43.56000000000001;0.0;22.95798066788599;29.53412034;40.099703868489996;39.081207296376;30.05967843698;21.038149577583997;12.016620718187998;4.001516143640999;0.0;3349.613264879486;2777.6874484306;5725.04999428629;7574.612575684176;6095.65742064558;4616.702265606984;3137.7471105683876;1664.2588682182407;0.0;0.9;0.8421052631578947;0.3333333333333333;0.17777777777777778;1.6;2.0;1.7222222222222223;1.4222222222222223;1.55;1.9342105263157894;1.5416666666666667;1.3611111111111112;11.5;13.894736842105264;7.944444444444445;5.333333333333333;43.9904811;46.885254578947354;23.710362777777775;15.002344066666662;148.81369162645012;195.99458620704786;125.80862809605641;90.70710369465891;6.965079600000001;7.228917263157894;7.05373911111111;6.932934666666666;5.338750000000001;5.844868421052632;5.495277777777777;5.2588333333333335;5.263000000000001;5.697368421052632;5.400000000000001;5.198;1.1478990333942996;1.5544273863157896;1.113880663013611;0.8684712732528;167.4806632439743;146.19407623318946;159.02916650795248;168.3247239040928;0.029406380146414408;-0.004436528787907509;-0.012988508035190964;-9.99636772168206e-05;3.243831075214936e-05;-0.00023914644286006544;-0.0017471203487683918;0.004775638907984395;0.0;13.0;0.75;-6.0;-1.75;-2.0;-1.25;1.5;2.25;0.0;3.2000000000000006;0.5600000000000005;-1.3599999999999997;-0.8;-0.9600000000000001;-0.12000000000000027;0.7199999999999996;0.3599999999999998;0.0;2.2000000000000006;-0.6899999999999997;-0.6599999999999999;0.04999999999999984;0.03999999999999987;0.27999999999999986;-0.4800000000000001;0.3599999999999998;0.0;105.0;-12.25;-44.0;-3.75;-4.0;-4.25;-4.5;20.25;0.0;508.4772378;-59.322344409999836;-213.07617583999985;-18.159901350000048;-19.370561440000067;-20.581221530000043;-21.791881620000055;98.06346728999992;0.0;945.5351364447349;-110.31243258521903;-396.22424765303185;-33.76911201588342;-36.02038615027564;-38.27166028466788;-40.5229344190601;182.35320488577034;0.0;0.09960719999999991;-0.01162083999999964;-0.04174015999999972;-0.003557400000000077;-0.0037945600000000934;-0.004031720000000112;-0.004268880000000128;0.01920995999999983;0.0;0.5144999999999988;-0.06002500000000223;-0.21560000000000112;-0.018374999999999406;-0.01959999999999929;-0.020824999999999174;-0.022049999999999053;0.09922500000000081;0.0;0.37799999999999956;-0.0441000000000013;-0.1584000000000007;-0.013499999999999665;-0.0143999999999996;-0.015299999999999536;-0.016199999999999472;0.07290000000000049;0.0;4.2269819963658;-0.49314789957600746;-1.7713067413342383;-0.15096364272735063;-0.1610278855758407;-0.17109212842433089;-0.181156371272821;0.8152036707276888;0.0;22.96103329148577;-2.6787872173400173;-9.621766331670237;-0.8200369032673462;-0.8747060301518355;-0.9293751570363254;-0.9840442839208143;4.42819927764369;0.0;0.0014703190073207203;-0.00023350151515302676;-0.00036079188986641564;-2.22141504926268e-06;0.65;0.039473684210526314;-0.16666666666666666;-0.03888888888888889;0.16000000000000003;0.029473684210526343;-0.03777777777777777;-0.017777777777777778;0.11000000000000003;-0.0363157894736842;-0.01833333333333333;0.0011111111111111076;5.25;-0.6447368421052632;-1.2222222222222223;-0.08333333333333333;25.42386189;-3.1222286531578862;-5.918782662222218;-0.4035533633333344;47.27675682223675;-5.805917504485212;-11.006229101473107;-0.7504247114640761;0.004980359999999995;-0.0006116231578947179;-0.0011594488888888811;-7.905333333333505e-05;0.025724999999999942;-0.0031592105263159066;-0.00598888888888892;-0.00040833333333332013;0.01889999999999998;-0.0023210526315790157;-0.004400000000000019;-0.00029999999999999255;0.21134909981829;-0.02595515260926355;-0.049202965037062174;-0.0033547476161633473;1.1480516645742884;-0.1409888009126325;-0.2672712869908399;-0.018223042294829916;-0.15881010446741312;-0.2453834086820835;-0.0015108388303505917;0.06072874493927126;-0.2564102564102564;-0.05982905982905983;-0.33014354066985624;-0.16666666666666657;0.010101010101010067;-0.12280701754385966;-0.23280423280423282;-0.015873015873015872;-0.12280701754385931;-0.23280423280423262;-0.015873015873015914;-0.1228070175438596;-0.23280423280423285;-0.01587301587301589;-0.12280701754385594;-0.23280423280423146;-0.01587301587301623;-0.12280701754386447;-0.23280423280423454;-0.015873015873015393;-0.1228070175438634;-0.2328042328042341;-0.015873015873015497;-0.12280701754385903;-0.23280423280423257;-0.015873015873015938;-0.12280701754386016;-0.23280423280423304;-0.01587301587301582;1.7017445147795536;1.3492374342192177;0.8794828601180867;1.5384615384615383;1.5833333333333333;1.0068376068376068;1.9318181818181814;1.0795454545454544;0.7676767676767675;1.6666666666666667;1.3822751322751323;0.9047619047619048;1.6666666666666672;1.3822751322751325;0.9047619047619049;1.666666666666667;1.3822751322751325;0.9047619047619051;1.666666666666666;1.3822751322751317;0.9047619047619044;1.666666666666667;1.3822751322751328;0.9047619047619051;1.666666666666667;1.3822751322751323;0.9047619047619049;1.6666666666666667;1.382275132275132;0.9047619047619048;1.6666666666666674;1.3822751322751328;0.9047619047619052;0.18623862022128979;-0.1844196903906827;2.166217256932578;0.9871324231766965;2.166217256932578;0.9871324231766965;2.025819622366681;1.3335812731217416;6.187113496106379;5.816507740815383;12.198113496106378;11.827507740815372;20.76663977222194;20.3960340169309;2.9331134961063827;2.562507740815377;2.737113496106378;2.366507740815378;2.687113496106378;2.316507740815375;1.8571134961063802;1.486507740815377;11.447413496106376;11.076807740815369;2.3390923149762908;24.218623007825954;12.109311503912972;19.573413119050727;24.218623007825947;4.036437167970991;12.109325540282477;2.4117970446931674;0.4019661741155279;0.3695465075674201;13.31654999838709;2.219424999731182;2.0781819986674965;24.218623007825954;12.109311503912972;19.573413119050727;24.218623007825947;4.036437167970991;12.109325540282477;2.4117970446931674;0.4019661741155279;0.3695465075674201;13.31654999838709;2.219424999731182;2.0781819986674965;24.218623007825954;12.109311503912972;19.573413119050727;24.218623007825947;4.036437167970991;12.109325540282477;2.4117970446931674;0.4019661741155279;0.3695465075674201;13.31654999838709;2.219424999731182;2.0781819986674965;24.218623007825954;12.109311503912972;19.573413119050727;24.218623007825947;4.036437167970991;12.109325540282477;2.4117970446931674;0.4019661741155279;0.3695465075674201;13.31654999838709;2.219424999731182;2.0781819986674965;24.218623007825954;12.109311503912972;19.573413119050727;24.218623007825947;4.036437167970991;12.109325540282477;2.4117970446931674;0.4019661741155279;0.3695465075674201;13.31654999838709;2.219424999731182;2.0781819986674965;24.218623007825954;12.109311503912972;19.573413119050727;24.218623007825947;4.036437167970991;12.109325540282477;2.4117970446931674;0.4019661741155279;0.3695465075674201;13.31654999838709;2.219424999731182;2.0781819986674965;24.218623007825954;12.109311503912972;19.573413119050727;24.218623007825947;4.036437167970991;12.109325540282477;2.4117970446931674;0.4019661741155279;0.3695465075674201;13.31654999838709;2.219424999731182;2.0781819986674965;24.218623007825954;12.109311503912972;19.573413119050727;24.218623007825947;4.036437167970991;12.109325540282477;2.4117970446931674;0.4019661741155279;0.3695465075674201;13.31654999838709;2.219424999731182;2.0781819986674965;12.0;19.0;5.0;19.0;19.0;0.1866650264604533;0.07606424819718648;2.0;4.0;0.0;0.0;0.0;0.0;0.0;0.0;0.0;0.0;0.0;0.0;0.0;0.0;0.0;0.0;0.0;0.0;4.82842712474619;2.914213562373095;1.7071067811865475;0.9571067811865475;0.5;0.25;0.0;0.0;0.8047378541243649;0.5828427124746189;4.82842712474619;2.914213562373095;1.7071067811865475;0.9571067811865475;0.5;0.25;0.0;0.0;0.8047378541243649;0.5828427124746189;8.333333333333332;7.1749229872616755;9.792794626501122;19.214857975236708;18.078431372549023;18.32;11.589881437125747;22.90702752146923;0.41666666666666663;0.3587461493630838;0.4896397313250561;0.9607428987618354;0.9039215686274511;0.916;0.5794940718562873;1.1453513760734615;24.218623007825954;12.109311503912972;19.573413119050727;24.218623007825947;4.036437167970991;12.109325540282477;2.4117970446931674;0.4019661741155279;0.3695465075674201;13.31654999838709;2.219424999731182;2.0781819986674965;2.0;4.0;0.0;0.0;4.463611111111111;5.536388888888888;0.0;0.0;2.2318055555555554;2.2318055555555554;38.0;3.0;0.3333333333333333;0.0;0.0;2.5;0.4166666666666667;2.5;0.4166666666666667;5.312944921610615;0.8854908202684358;2.914213562373095;0.48570226039551584;5.312944921610615;0.8854908202684358;2.914213562373095;0.48570226039551584;0.0;0.0;0.0;0.0;0.42000000000000004;0.6999999999999998;0.42000000000000004;0.42000000000000004;0.6999999999999998;-2.5;-0.4166666666666667;0.7142857142857144;0.00028571428571444457;5.0;0.8812908992306927;1.1567796494470395;2.0464393446710156;2.4464393446710155;2.4464393446710155;2.4464393446710155;17.625817984613853;23.13559298894079;40.92878689342031;48.92878689342031;48.92878689342031;48.92878689342031;0.20391151353795506;0.26765360830862855;0.4735014789098081;0.5660527641737118;0.5660527641737118;0.5660527641737118;0.20746373294780487;0.2723162402809683;0.48175006239973905;0.5759136277463943;0.5759136277463943;0.5759136277463943;3.44063719565667;3.165148445440323;2.275488750216347;1.875488750216347;1.875488750216347;1.875488750216347;6.621890956207768;9.93078633505631;13.028163307842076;13.431363307842076;13.431363307842076;13.431363307842076;23.802045510726657;20.174385663055805;19.315649114733233;18.800564162913453;18.800564162913453;18.800564162913453;6.0;1.0;0.0;-2.1674661124533476;95.40000000000003;40.563961599812586;39.53076089108528;0.0;0.0;39.53076089108528;0.0;39.53076089108528;0.0;0.0;25.683286491704038;0.0;13.847474399381248;0.0;0.0;5.536388888888888;4.463611111111111;0.19999999999999996;10.839150429449553;1.8065250715749255;10.839150429449553;1.8065250715749255;4.0;3.0;2.0;1.0;0.0;0.0;0.0;0.0;0.0;21.0;1.791759469228055;1.6094379124341003;1.3862943611198906;1.0986122886681098;0.6931471805599453;0.0;0.0;0.0;0.0;0.0;3.091042453358316;19.355102;14.044898;3.0;0.6;2.5866000000000007;29.81599999999998;0.5;0.22222222222222232;0.125;0.08000000000000002;0.0;0.0;0.0;0.0;0.0;0.0;0.1;0.05555555555555558;0.041666666666666664;0.04000000000000001;0.0;0.0;0.0;0.0;0.0;0.0;0.23722222222222228;5.0;3.0;0.6666666666666666;0.4;112.33237029088555;3.321928094887362;5.0;2.9444389791664403;3.4965075614664802;4.07753744390572;4.653960350157523;5.241747015059643;5.82600010738045;6.415096959171596;7.002155954403621;7.591357046698551;58.24880141741002;2.3978952727983707;3.295836866004329;4.343805421853684;5.459585514144159;6.608000625296087;28.105123700096627;86.109550448;4.3054775223999995;35.0;3.0;18.0;16.0;3.0;1.75