boiling_point;SMILES;IUPAC_name;InChIKey;SpAbs_A;SpMax_A;SpDiam_A;SpAD_A;SpMAD_A;LogEE_A;VE1_A;VE2_A;VE3_A;VR1_A;VR2_A;VR3_A;nAtom;nHeavyAtom;nH;nC;ATS0dv;ATS1dv;ATS2dv;ATS3dv;ATS4dv;ATS5dv;ATS6dv;ATS7dv;ATS8dv;ATS0d;ATS1d;ATS2d;ATS3d;ATS4d;ATS5d;ATS6d;ATS7d;ATS8d;ATS0s;ATS1s;ATS2s;ATS3s;ATS4s;ATS5s;ATS6s;ATS7s;ATS8s;ATS0Z;ATS1Z;ATS2Z;ATS3Z;ATS4Z;ATS5Z;ATS6Z;ATS7Z;ATS8Z;ATS0m;ATS1m;ATS2m;ATS3m;ATS4m;ATS5m;ATS6m;ATS7m;ATS8m;ATS0v;ATS1v;ATS2v;ATS3v;ATS4v;ATS5v;ATS6v;ATS7v;ATS8v;ATS0se;ATS1se;ATS2se;ATS3se;ATS4se;ATS5se;ATS6se;ATS7se;ATS8se;ATS0pe;ATS1pe;ATS2pe;ATS3pe;ATS4pe;ATS5pe;ATS6pe;ATS7pe;ATS8pe;ATS0are;ATS1are;ATS2are;ATS3are;ATS4are;ATS5are;ATS6are;ATS7are;ATS8are;ATS0p;ATS1p;ATS2p;ATS3p;ATS4p;ATS5p;ATS6p;ATS7p;ATS8p;ATS0i;ATS1i;ATS2i;ATS3i;ATS4i;ATS5i;ATS6i;ATS7i;ATS8i;AATS0dv;AATS1dv;AATS2dv;AATS3dv;AATS0d;AATS1d;AATS2d;AATS3d;AATS0s;AATS1s;AATS2s;AATS3s;AATS0Z;AATS1Z;AATS2Z;AATS3Z;AATS0m;AATS1m;AATS2m;AATS3m;AATS0v;AATS1v;AATS2v;AATS3v;AATS0se;AATS1se;AATS2se;AATS3se;AATS0pe;AATS1pe;AATS2pe;AATS3pe;AATS0are;AATS1are;AATS2are;AATS3are;AATS0p;AATS1p;AATS2p;AATS3p;AATS0i;AATS1i;AATS2i;AATS3i;ATSC0c;ATSC1c;ATSC2c;ATSC3c;ATSC4c;ATSC5c;ATSC6c;ATSC7c;ATSC8c;ATSC0dv;ATSC1dv;ATSC2dv;ATSC3dv;ATSC4dv;ATSC5dv;ATSC6dv;ATSC7dv;ATSC8dv;ATSC0d;ATSC1d;ATSC2d;ATSC3d;ATSC4d;ATSC5d;ATSC6d;ATSC7d;ATSC8d;ATSC0s;ATSC1s;ATSC2s;ATSC3s;ATSC4s;ATSC5s;ATSC6s;ATSC7s;ATSC8s;ATSC0Z;ATSC1Z;ATSC2Z;ATSC3Z;ATSC4Z;ATSC5Z;ATSC6Z;ATSC7Z;ATSC8Z;ATSC0m;ATSC1m;ATSC2m;ATSC3m;ATSC4m;ATSC5m;ATSC6m;ATSC7m;ATSC8m;ATSC0v;ATSC1v;ATSC2v;ATSC3v;ATSC4v;ATSC5v;ATSC6v;ATSC7v;ATSC8v;ATSC0se;ATSC1se;ATSC2se;ATSC3se;ATSC4se;ATSC5se;ATSC6se;ATSC7se;ATSC8se;ATSC0pe;ATSC1pe;ATSC2pe;ATSC3pe;ATSC4pe;ATSC5pe;ATSC6pe;ATSC7pe;ATSC8pe;ATSC0are;ATSC1are;ATSC2are;ATSC3are;ATSC4are;ATSC5are;ATSC6are;ATSC7are;ATSC8are;ATSC0p;ATSC1p;ATSC2p;ATSC3p;ATSC4p;ATSC5p;ATSC6p;ATSC7p;ATSC8p;ATSC0i;ATSC1i;ATSC2i;ATSC3i;ATSC4i;ATSC5i;ATSC6i;ATSC7i;ATSC8i;AATSC0c;AATSC1c;AATSC2c;AATSC3c;AATSC0dv;AATSC1dv;AATSC2dv;AATSC3dv;AATSC0d;AATSC1d;AATSC2d;AATSC3d;AATSC0s;AATSC1s;AATSC2s;AATSC3s;AATSC0Z;AATSC1Z;AATSC2Z;AATSC3Z;AATSC0m;AATSC1m;AATSC2m;AATSC3m;AATSC0v;AATSC1v;AATSC2v;AATSC3v;AATSC0se;AATSC1se;AATSC2se;AATSC3se;AATSC0pe;AATSC1pe;AATSC2pe;AATSC3pe;AATSC0are;AATSC1are;AATSC2are;AATSC3are;AATSC0p;AATSC1p;AATSC2p;AATSC3p;AATSC0i;AATSC1i;AATSC2i;AATSC3i;MATS1c;MATS2c;MATS3c;MATS1dv;MATS2dv;MATS3dv;MATS1s;MATS2s;MATS3s;MATS1Z;MATS2Z;MATS3Z;MATS1m;MATS2m;MATS3m;MATS1v;MATS2v;MATS3v;MATS1se;MATS2se;MATS3se;MATS1pe;MATS2pe;MATS3pe;MATS1are;MATS2are;MATS3are;MATS1p;MATS2p;MATS3p;MATS1i;MATS2i;MATS3i;GATS1c;GATS2c;GATS3c;GATS1dv;GATS2dv;GATS3dv;GATS1s;GATS2s;GATS3s;GATS1Z;GATS2Z;GATS3Z;GATS1m;GATS2m;GATS3m;GATS1v;GATS2v;GATS3v;GATS1se;GATS2se;GATS3se;GATS1pe;GATS2pe;GATS3pe;GATS1are;GATS2are;GATS3are;GATS1p;GATS2p;GATS3p;GATS1i;GATS2i;GATS3i;BCUTc-1h;BCUTc-1l;BCUTdv-1h;BCUTdv-1l;BCUTd-1h;BCUTd-1l;BCUTs-1h;BCUTs-1l;BCUTZ-1h;BCUTZ-1l;BCUTm-1h;BCUTm-1l;BCUTv-1h;BCUTv-1l;BCUTse-1h;BCUTse-1l;BCUTpe-1h;BCUTpe-1l;BCUTare-1h;BCUTare-1l;BCUTp-1h;BCUTp-1l;BCUTi-1h;BCUTi-1l;BalabanJ;SpAbs_DzZ;SpMax_DzZ;SpDiam_DzZ;SpAD_DzZ;SpMAD_DzZ;LogEE_DzZ;VE1_DzZ;VE2_DzZ;VE3_DzZ;VR1_DzZ;VR2_DzZ;VR3_DzZ;SpAbs_Dzm;SpMax_Dzm;SpDiam_Dzm;SpAD_Dzm;SpMAD_Dzm;LogEE_Dzm;VE1_Dzm;VE2_Dzm;VE3_Dzm;VR1_Dzm;VR2_Dzm;VR3_Dzm;SpAbs_Dzv;SpMax_Dzv;SpDiam_Dzv;SpAD_Dzv;SpMAD_Dzv;LogEE_Dzv;VE1_Dzv;VE2_Dzv;VE3_Dzv;VR1_Dzv;VR2_Dzv;VR3_Dzv;SpAbs_Dzse;SpMax_Dzse;SpDiam_Dzse;SpAD_Dzse;SpMAD_Dzse;LogEE_Dzse;VE1_Dzse;VE2_Dzse;VE3_Dzse;VR1_Dzse;VR2_Dzse;VR3_Dzse;SpAbs_Dzpe;SpMax_Dzpe;SpDiam_Dzpe;SpAD_Dzpe;SpMAD_Dzpe;LogEE_Dzpe;VE1_Dzpe;VE2_Dzpe;VE3_Dzpe;VR1_Dzpe;VR2_Dzpe;VR3_Dzpe;SpAbs_Dzare;SpMax_Dzare;SpDiam_Dzare;SpAD_Dzare;SpMAD_Dzare;LogEE_Dzare;VE1_Dzare;VE2_Dzare;VE3_Dzare;VR1_Dzare;VR2_Dzare;VR3_Dzare;SpAbs_Dzp;SpMax_Dzp;SpDiam_Dzp;SpAD_Dzp;SpMAD_Dzp;LogEE_Dzp;VE1_Dzp;VE2_Dzp;VE3_Dzp;VR1_Dzp;VR2_Dzp;VR3_Dzp;SpAbs_Dzi;SpMax_Dzi;SpDiam_Dzi;SpAD_Dzi;SpMAD_Dzi;LogEE_Dzi;VE1_Dzi;VE2_Dzi;VE3_Dzi;VR1_Dzi;VR2_Dzi;VR3_Dzi;BertzCT;nBonds;nBondsO;nBondsS;nBondsKS;RNCG;RPCG;C1SP3;C2SP3;C3SP3;C4SP3;Xc-3d;Xc-4d;Xc-5d;Xc-6d;Xc-3dv;Xc-4dv;Xc-5dv;Xc-6dv;Xpc-4d;Xpc-5d;Xpc-6d;Xpc-4dv;Xpc-5dv;Xpc-6dv;Xp-0d;Xp-1d;Xp-2d;Xp-3d;Xp-4d;Xp-5d;Xp-6d;Xp-7d;AXp-0d;AXp-1d;Xp-0dv;Xp-1dv;Xp-2dv;Xp-3dv;Xp-4dv;Xp-5dv;Xp-6dv;Xp-7dv;AXp-0dv;AXp-1dv;SZ;Sm;Sv;Sse;Spe;Sare;Sp;Si;MZ;Mm;Mv;Mse;Mpe;Mare;Mp;Mi;SpAbs_D;SpMax_D;SpDiam_D;SpAD_D;SpMAD_D;LogEE_D;VE1_D;VE2_D;VE3_D;VR1_D;VR2_D;VR3_D;NsCH3;NssCH2;NsssCH;NssssC;SsCH3;SssCH2;SsssCH;SssssC;MAXsCH3;MINsCH3;ECIndex;ETA_alpha;ETA_shape_p;ETA_shape_y;ETA_shape_x;ETA_beta;AETA_beta;ETA_beta_s;AETA_beta_s;ETA_eta;AETA_eta;ETA_eta_L;AETA_eta_L;ETA_eta_R;AETA_eta_R;ETA_eta_RL;AETA_eta_RL;ETA_eta_B;AETA_eta_B;ETA_eta_BR;AETA_eta_BR;ETA_epsilon_1;ETA_epsilon_2;ETA_epsilon_3;ETA_epsilon_4;ETA_epsilon_5;ETA_dBeta;AETA_dBeta;ETA_psi_1;ETA_dPsi_B;fragCpx;IC0;IC1;IC2;IC3;IC4;IC5;TIC0;TIC1;TIC2;TIC3;TIC4;TIC5;SIC0;SIC1;SIC2;SIC3;SIC4;SIC5;BIC0;BIC1;BIC2;BIC3;BIC4;BIC5;CIC0;CIC1;CIC2;CIC3;CIC4;CIC5;MIC0;MIC1;MIC2;MIC3;MIC4;MIC5;ZMIC0;ZMIC1;ZMIC2;ZMIC3;ZMIC4;ZMIC5;Kier1;Lipinski;GhoseFilter;FilterItLogS;VMcGowan;LabuteASA;PEOE_VSA6;PEOE_VSA7;SMR_VSA4;SMR_VSA5;SlogP_VSA4;SlogP_VSA5;EState_VSA3;EState_VSA4;EState_VSA5;EState_VSA7;EState_VSA8;VSA_EState4;VSA_EState5;VSA_EState7;VSA_EState8;MDEC-11;MID;AMID;MID_C;AMID_C;MPC2;MPC3;MPC4;MPC5;MPC6;MPC7;MPC8;MPC9;MPC10;TMPC10;piPC1;piPC2;piPC3;piPC4;piPC5;piPC6;piPC7;piPC8;piPC9;piPC10;TpiPC10;apol;bpol;nRot;RotRatio;SLogP;SMR;GGI1;GGI2;GGI3;GGI4;GGI5;GGI6;GGI7;GGI8;GGI9;GGI10;JGI1;JGI2;JGI3;JGI4;JGI5;JGI6;JGI7;JGI8;JGI9;JGI10;JGT10;Diameter;Radius;TopoShapeIndex;PetitjeanIndex;Vabc;VAdjMat;MWC01;MWC02;MWC03;MWC04;MWC05;MWC06;MWC07;MWC08;MWC09;MWC10;TMWC10;SRW02;SRW04;SRW06;SRW08;SRW10;TSRW10;MW;AMW;WPath;WPol;Zagreb1;Zagreb2;mZagreb1;mZagreb2
134.0;CCCC(C)(C)CCC;4,4-dimethylheptane;WSOKFYJGNBQDPW-UHFFFAOYSA-N;9.431147620289327;2.175327747161074;4.350655494322147;9.431147620289327;1.0479052911432585;3.02929880005179;2.665014142770163;0.2961126825300181;0.8748488488014962;28.193203272304295;3.132578141367144;3.23372041452395;29.0;9.0;20.0;9.0;36.0;36.0;33.0;24.0;12.0;4.0;1.0;0.0;0.0;56.0;64.0;121.0;122.0;133.0;84.0;69.0;18.0;9.0;46.5625;55.25;85.5;115.5;126.75;109.0;73.0;24.0;9.0;344.0;408.0;544.0;572.0;505.0;332.0;148.0;48.0;9.0;1318.6983689999995;1396.2547279999994;1797.8966979999998;1707.1461199999997;1471.2769749999995;781.1116339999999;318.1703289999999;84.835296;9.144576;4433.327004362572;5682.86754140501;7945.1341867627025;9058.221222916061;8388.766745958525;6201.705047368137;3187.2377758628895;1061.424631394275;279.75369987837234;202.2339240000001;202.67676799999998;382.19428;507.869216;623.9878359999999;500.54189600000007;428.07696400000003;123.32736;60.466176;155.32250000000002;164.22;299.54499999999996;395.65999999999997;473.41749999999996;381.065;314.2825;91.74000000000001;43.56000000000001;153.05;160.0;293.94;388.79999999999995;467.91;376.38;312.93;91.08;43.56000000000001;33.992358096980006;44.5820862;66.18204715758401;80.19940773697999;79.168838877601;62.120096735168;37.044214152148;12.016620718187998;4.001516143640999;4839.50224529498;4076.8058029780004;8514.057329249184;11450.099988572581;15154.692064056802;11989.610390046171;11273.737738479947;3137.7471105683876;1664.2588682182407;1.2413793103448276;1.2857142857142858;0.6111111111111112;0.3333333333333333;1.9310344827586208;2.2857142857142856;2.240740740740741;1.6944444444444444;1.605603448275862;1.9732142857142858;1.5833333333333333;1.6041666666666667;11.862068965517242;14.571428571428571;10.074074074074074;7.944444444444445;45.47235755172412;49.86624028571426;33.294383296296296;23.710362777777775;152.8733449780197;202.95955505017895;147.1321145696797;125.80862809605641;6.9735835862068996;7.238455999999999;7.077671851851852;7.053739111111111;5.35594827586207;5.865;5.547129629629629;5.495277777777777;5.277586206896552;5.714285714285714;5.443333333333333;5.3999999999999995;1.172150279206207;1.5922173642857143;1.2255934658811853;1.113880663013611;166.8793877687924;145.6002072492143;157.66772831942933;159.0291665079525;0.040125110900546324;-0.008313006062331568;0.0025654221837909585;-0.021617009599381218;0.011497951938052744;-0.02677804672538732;0.019545188466770357;-0.0017388338227956905;0.0047757781710085715;27.17241379310344;9.2128418549346;-10.14863258026159;-13.669441141498217;-10.259215219976218;-3.8763376932223546;10.246135552913199;2.16884661117717;2.7395957193816884;11.310344827586206;2.8727705112960766;-4.336504161712249;-5.391200951248515;-3.894173602853746;1.2984542211652803;2.2223543400713446;1.048751486325803;0.5243757431629015;3.7155172413793114;-1.8373959571938159;1.1892092746730083;-2.384215219976218;2.641498216409037;-3.414387633769322;1.9865487514863247;-0.45704518430439967;0.418029131985731;155.17241379310346;-11.890606420927494;7.6099881093935515;-92.15219976218789;19.292508917954823;-102.49702734839477;83.59096313912013;-3.2104637336504096;21.670630202140316;751.4441937931032;-57.5819305588583;36.85243555766953;-446.25996183115313;93.4266823317478;-496.35624141736025;404.8009718287749;-15.547121250891855;104.94306844351955;1397.342566174485;-107.07605871068859;68.52867757484046;-829.8394550078364;173.73090525809215;-922.9956260861354;752.7446927361407;-28.910535851885882;195.1461170002299;0.14720275862068946;-0.011279904875146945;0.00721913912009642;-0.08741926278240043;0.01830164565992793;-0.09723278002378136;0.07929773127229237;-0.0030455743162905915;0.02055762663495786;0.7603448275862053;-0.05826397146254696;0.03728894173602648;-0.45154577883472174;0.09453329369797941;-0.5022354340071331;0.40959571938169126;-0.015731272294886325;0.10618608799048804;0.5586206896551719;-0.04280618311534079;0.02739595719381535;-0.3317479191438776;0.06945303210463806;-0.36898929845422046;0.30092746730083486;-0.01155766944114094;0.07801426872770562;6.246771423200688;-0.4786798025441109;0.30635507362823533;-3.709768469716882;0.7766579796278238;-4.126219897930263;3.3651190118851178;-0.12924354668691157;0.8723939401366471;33.932561514511;-2.600196284637051;1.6641256221674405;-20.151521205935808;4.2188184718233845;-22.41369197356969;18.279379880997393;-0.702052996851898;4.738857728750731;0.0013836245138119422;-0.0002968930736546989;4.750781821835108e-05;-0.00030023624443585025;0.9369797859690842;0.3290300662476643;-0.18793764037521465;-0.18985334918747523;0.3900118906064209;0.10259894683200274;-0.0803056326243009;-0.07487779098956271;0.12812128418549348;-0.06562128418549343;0.022022393975426078;-0.03311410027744747;5.35077288941736;-0.4246645150331248;0.14092570572951021;-1.2798916633637207;25.911868751486317;-2.0564975199592253;0.6824525103272135;-6.198055025432683;48.184226419809825;-3.8241449539531636;1.2690495847192678;-11.52554798621995;0.005075957193816878;-0.0004028537455409623;0.00013368776148326705;-0.0012141564275333393;0.026218787158145008;-0.0020808561236623914;0.0006905359580745645;-0.0062714691504822465;0.01926278240190248;-0.0015287922541193139;0.0005073325406262102;-0.004607609988109411;0.2154059111448513;-0.017095707233718248;0.00567324210422658;-0.051524562079401134;1.1700883280865861;-0.09286415302275183;0.030817141151248898;-0.2798822389713307;-0.2145763324449538;0.03433577371903097;-0.21699257380796697;0.35116026105873827;-0.20057811618725327;-0.2026226734348562;-0.5121809744779579;0.17188708430007726;-0.25845901005413746;-0.07936507936507954;0.026337448559670684;-0.23919753086419757;-0.07936507936507912;0.026337448559670858;-0.23919753086419748;-0.07936507936507942;0.026337448559670712;-0.23919753086419765;-0.07936507936506759;0.026337448559675545;-0.23919753086419385;-0.07936507936508276;0.026337448559669387;-0.23919753086419865;-0.07936507936508297;0.026337448559669335;-0.23919753086419865;-0.07936507936507886;0.026337448559670986;-0.2391975308641974;-0.07936507936508526;0.026337448559668426;-0.23919753086419943;1.7486189573339643;1.0285605829281743;1.3075528649770072;1.324873096446701;2.2326565143824033;1.3739424703891712;2.119489559164733;0.6803299819541118;1.354118329466357;1.6111111111111112;1.1695473251028807;1.378395061728395;1.6111111111111116;1.1695473251028814;1.3783950617283958;1.6111111111111116;1.169547325102881;1.3783950617283955;1.6111111111111116;1.1695473251028812;1.3783950617283955;1.6111111111111112;1.1695473251028807;1.378395061728395;1.6111111111111107;1.1695473251028805;1.3783950617283947;1.6111111111111112;1.169547325102881;1.3783950617283953;1.611111111111111;1.1695473251028807;1.378395061728395;0.2209114832107459;-0.2366481511642624;4.017989787677852;0.9871447154965198;4.017989787677852;0.9871447154965198;2.0354318697620806;1.157835044210175;6.230055176740343;5.7753845952574006;12.241055176740343;11.786384595257385;20.80958145285583;20.35491087137293;2.9760551767403407;2.521384595257401;2.780055176740339;2.325384595257396;2.730055176740339;2.275384595257399;1.9000551767403413;1.4453845952574023;11.490355176740335;11.035684595257402;3.4310512772790966;44.54100371589362;22.27050185794682;32.36833653699143;44.54100371589364;4.949000412877071;22.27050185864277;2.944829068859071;0.3272032298732301;0.9746902586268307;27.358906169174027;3.0398784632415587;3.2036815971004784;44.54100371589362;22.27050185794682;32.36833653699143;44.54100371589364;4.949000412877071;22.27050185864277;2.944829068859071;0.3272032298732301;0.9746902586268307;27.358906169174027;3.0398784632415587;3.2036815971004784;44.54100371589362;22.27050185794682;32.36833653699143;44.54100371589364;4.949000412877071;22.27050185864277;2.944829068859071;0.3272032298732301;0.9746902586268307;27.358906169174027;3.0398784632415587;3.2036815971004784;44.54100371589362;22.27050185794682;32.36833653699143;44.54100371589364;4.949000412877071;22.27050185864277;2.944829068859071;0.3272032298732301;0.9746902586268307;27.358906169174027;3.0398784632415587;3.2036815971004784;44.54100371589362;22.27050185794682;32.36833653699143;44.54100371589364;4.949000412877071;22.27050185864277;2.944829068859071;0.3272032298732301;0.9746902586268307;27.358906169174027;3.0398784632415587;3.2036815971004784;44.54100371589362;22.27050185794682;32.36833653699143;44.54100371589364;4.949000412877071;22.27050185864277;2.944829068859071;0.3272032298732301;0.9746902586268307;27.358906169174027;3.0398784632415587;3.2036815971004784;44.54100371589362;22.27050185794682;32.36833653699143;44.54100371589364;4.949000412877071;22.27050185864277;2.944829068859071;0.3272032298732301;0.9746902586268307;27.358906169174027;3.0398784632415587;3.2036815971004784;44.54100371589362;22.27050185794682;32.36833653699143;44.54100371589364;4.949000412877071;22.27050185864277;2.944829068859071;0.3272032298732301;0.9746902586268307;27.358906169174027;3.0398784632415587;3.2036815971004784;54.43856189774725;28.0;8.0;28.0;28.0;0.13228858036545083;0.05503212821831269;4.0;4.0;0.0;1.0;1.2071067811865475;0.25;0.0;0.0;1.2071067811865475;0.25;0.0;0.0;1.2071067811865475;1.8106601717798216;0.9785533905932737;1.2071067811865475;1.8106601717798216;0.9785533905932737;7.328427124746191;4.121320343559643;3.6642135623730954;1.8535533905932737;1.4785533905932737;0.25;0.125;0.0;0.8142696805273545;0.5151650429449554;7.328427124746191;4.121320343559643;3.6642135623730954;1.8535533905932737;1.4785533905932737;0.25;0.125;0.0;0.8142696805273545;0.5151650429449554;12.33333333333333;10.678461410373828;14.418278037858745;27.87836853605244;26.254901960784316;26.599999999999998;16.985544910179645;33.15289645924176;0.425287356321839;0.3682228072542699;0.49718200130547396;0.9613230529673256;0.9053414469235971;0.9172413793103448;0.5857084451786084;1.1432033261807504;44.54100371589362;22.27050185794682;32.36833653699143;44.54100371589364;4.949000412877071;22.27050185864277;2.944829068859071;0.3272032298732301;0.9746902586268307;27.358906169174027;3.0398784632415587;3.2036815971004784;4.0;4.0;0.0;1.0;9.24486111111111;5.404444444444444;0.0;0.6006944444444444;2.361111111111111;2.261319444444444;68.0;4.5;0.4444444444444444;0.0;0.1111111111111111;4.0;0.4444444444444444;4.0;0.4444444444444444;10.883732555695849;1.2093036172995388;4.121320343559643;0.4579244826177381;10.883732555695849;1.2093036172995388;4.121320343559643;0.4579244826177381;0.2928932188134521;0.032543690979272455;0.2928932188134521;0.032543690979272455;0.4241379310344827;0.7;0.4241379310344827;0.4241379310344827;0.7;-4.0;-0.4444444444444444;0.7142857142857143;0.00028571428571433355;8.0;0.8935711016541907;1.3256167917569774;2.271099960346404;2.960755132760197;2.960755132760197;2.960755132760197;25.91356194797153;38.44288696095234;65.86189885004572;85.8618988500457;85.8618988500457;85.8618988500457;0.18393878085369605;0.27287401763953717;0.4674987330383256;0.6094620657696597;0.6094620657696597;0.6094620657696597;0.18587583320595183;0.27574764361055293;0.4724219445345939;0.6158802877597728;0.6158802877597728;0.6158802877597728;3.9644098934733814;3.5323642033705944;2.5868810347811677;1.897225862367375;1.897225862367375;1.897225862367375;6.664965218283638;11.854266002108208;15.842623380873937;16.53779579466704;16.53779579466704;16.53779579466704;35.68332320783173;27.32073783211528;24.19791408226555;22.573337411874366;22.573337411874366;22.573337411874366;9.0;1.0;0.0;-3.056954700395046;137.67000000000004;59.658787943002416;40.53659204461451;18.2566337152488;5.41499046939678;53.378235290466534;5.41499046939678;53.378235290466534;5.41499046939678;0.0;25.683286491704038;0.0;27.694948798762496;0.6006944444444444;0.0;5.404444444444444;9.24486111111111;1.5736725951324726;16.422098208591763;1.824677578732418;16.422098208591763;1.824677578732418;10.0;8.0;7.0;2.0;1.0;0.0;0.0;0.0;0.0;45.0;2.1972245773362196;2.3978952727983707;2.1972245773362196;2.0794415416798357;1.0986122886681098;0.6931471805599453;0.0;0.0;0.0;0.0;3.828641396489095;28.365859999999998;20.06414;4.0;0.5;3.6128000000000027;43.59700000000001;3.0;1.1111111111111114;0.625;0.08000000000000002;0.05555555555555555;0.0;0.0;0.0;0.0;0.0;0.375;0.11111111111111115;0.078125;0.01142857142857143;0.027777777777777776;0.0;0.0;0.0;0.0;0.0;0.6034424603174603;6.0;3.0;1.0;0.5;164.22032596245742;4.0;8.0;3.6109179126442243;4.290459441148391;5.117993812416755;5.820082930352362;6.660575149839686;7.368339686311381;8.212025804623437;8.921190556249368;9.765661235628725;76.76724652921433;2.833213344056216;4.04305126783455;5.4510384535657;6.947937068614969;8.479906606630221;36.755146740701655;128.15650064;4.419189677241379;96.0;8.0;36.0;36.0;5.0625;2.25