boiling_point;SMILES;IUPAC_name;InChIKey;SpAbs_A;SpMax_A;SpDiam_A;SpAD_A;SpMAD_A;LogEE_A;VE1_A;VE2_A;VE3_A;VR1_A;VR2_A;VR3_A;nAtom;nHeavyAtom;nH;nC;ATS0dv;ATS1dv;ATS2dv;ATS3dv;ATS4dv;ATS5dv;ATS6dv;ATS7dv;ATS8dv;ATS0d;ATS1d;ATS2d;ATS3d;ATS4d;ATS5d;ATS6d;ATS7d;ATS8d;ATS0s;ATS1s;ATS2s;ATS3s;ATS4s;ATS5s;ATS6s;ATS7s;ATS8s;ATS0Z;ATS1Z;ATS2Z;ATS3Z;ATS4Z;ATS5Z;ATS6Z;ATS7Z;ATS8Z;ATS0m;ATS1m;ATS2m;ATS3m;ATS4m;ATS5m;ATS6m;ATS7m;ATS8m;ATS0v;ATS1v;ATS2v;ATS3v;ATS4v;ATS5v;ATS6v;ATS7v;ATS8v;ATS0se;ATS1se;ATS2se;ATS3se;ATS4se;ATS5se;ATS6se;ATS7se;ATS8se;ATS0pe;ATS1pe;ATS2pe;ATS3pe;ATS4pe;ATS5pe;ATS6pe;ATS7pe;ATS8pe;ATS0are;ATS1are;ATS2are;ATS3are;ATS4are;ATS5are;ATS6are;ATS7are;ATS8are;ATS0p;ATS1p;ATS2p;ATS3p;ATS4p;ATS5p;ATS6p;ATS7p;ATS8p;ATS0i;ATS1i;ATS2i;ATS3i;ATS4i;ATS5i;ATS6i;ATS7i;ATS8i;AATS0dv;AATS1dv;AATS2dv;AATS3dv;AATS0d;AATS1d;AATS2d;AATS3d;AATS0s;AATS1s;AATS2s;AATS3s;AATS0Z;AATS1Z;AATS2Z;AATS3Z;AATS0m;AATS1m;AATS2m;AATS3m;AATS0v;AATS1v;AATS2v;AATS3v;AATS0se;AATS1se;AATS2se;AATS3se;AATS0pe;AATS1pe;AATS2pe;AATS3pe;AATS0are;AATS1are;AATS2are;AATS3are;AATS0p;AATS1p;AATS2p;AATS3p;AATS0i;AATS1i;AATS2i;AATS3i;ATSC0c;ATSC1c;ATSC2c;ATSC3c;ATSC4c;ATSC5c;ATSC6c;ATSC7c;ATSC8c;ATSC0dv;ATSC1dv;ATSC2dv;ATSC3dv;ATSC4dv;ATSC5dv;ATSC6dv;ATSC7dv;ATSC8dv;ATSC0d;ATSC1d;ATSC2d;ATSC3d;ATSC4d;ATSC5d;ATSC6d;ATSC7d;ATSC8d;ATSC0s;ATSC1s;ATSC2s;ATSC3s;ATSC4s;ATSC5s;ATSC6s;ATSC7s;ATSC8s;ATSC0Z;ATSC1Z;ATSC2Z;ATSC3Z;ATSC4Z;ATSC5Z;ATSC6Z;ATSC7Z;ATSC8Z;ATSC0m;ATSC1m;ATSC2m;ATSC3m;ATSC4m;ATSC5m;ATSC6m;ATSC7m;ATSC8m;ATSC0v;ATSC1v;ATSC2v;ATSC3v;ATSC4v;ATSC5v;ATSC6v;ATSC7v;ATSC8v;ATSC0se;ATSC1se;ATSC2se;ATSC3se;ATSC4se;ATSC5se;ATSC6se;ATSC7se;ATSC8se;ATSC0pe;ATSC1pe;ATSC2pe;ATSC3pe;ATSC4pe;ATSC5pe;ATSC6pe;ATSC7pe;ATSC8pe;ATSC0are;ATSC1are;ATSC2are;ATSC3are;ATSC4are;ATSC5are;ATSC6are;ATSC7are;ATSC8are;ATSC0p;ATSC1p;ATSC2p;ATSC3p;ATSC4p;ATSC5p;ATSC6p;ATSC7p;ATSC8p;ATSC0i;ATSC1i;ATSC2i;ATSC3i;ATSC4i;ATSC5i;ATSC6i;ATSC7i;ATSC8i;AATSC0c;AATSC1c;AATSC2c;AATSC3c;AATSC0dv;AATSC1dv;AATSC2dv;AATSC3dv;AATSC0d;AATSC1d;AATSC2d;AATSC3d;AATSC0s;AATSC1s;AATSC2s;AATSC3s;AATSC0Z;AATSC1Z;AATSC2Z;AATSC3Z;AATSC0m;AATSC1m;AATSC2m;AATSC3m;AATSC0v;AATSC1v;AATSC2v;AATSC3v;AATSC0se;AATSC1se;AATSC2se;AATSC3se;AATSC0pe;AATSC1pe;AATSC2pe;AATSC3pe;AATSC0are;AATSC1are;AATSC2are;AATSC3are;AATSC0p;AATSC1p;AATSC2p;AATSC3p;AATSC0i;AATSC1i;AATSC2i;AATSC3i;MATS1c;MATS2c;MATS3c;MATS1dv;MATS2dv;MATS3dv;MATS1s;MATS2s;MATS3s;MATS1Z;MATS2Z;MATS3Z;MATS1m;MATS2m;MATS3m;MATS1v;MATS2v;MATS3v;MATS1se;MATS2se;MATS3se;MATS1pe;MATS2pe;MATS3pe;MATS1are;MATS2are;MATS3are;MATS1p;MATS2p;MATS3p;MATS1i;MATS2i;MATS3i;GATS1c;GATS2c;GATS3c;GATS1dv;GATS2dv;GATS3dv;GATS1s;GATS2s;GATS3s;GATS1Z;GATS2Z;GATS3Z;GATS1m;GATS2m;GATS3m;GATS1v;GATS2v;GATS3v;GATS1se;GATS2se;GATS3se;GATS1pe;GATS2pe;GATS3pe;GATS1are;GATS2are;GATS3are;GATS1p;GATS2p;GATS3p;GATS1i;GATS2i;GATS3i;BCUTc-1h;BCUTc-1l;BCUTdv-1h;BCUTdv-1l;BCUTd-1h;BCUTd-1l;BCUTs-1h;BCUTs-1l;BCUTZ-1h;BCUTZ-1l;BCUTm-1h;BCUTm-1l;BCUTv-1h;BCUTv-1l;BCUTse-1h;BCUTse-1l;BCUTpe-1h;BCUTpe-1l;BCUTare-1h;BCUTare-1l;BCUTp-1h;BCUTp-1l;BCUTi-1h;BCUTi-1l;BalabanJ;SpAbs_DzZ;SpMax_DzZ;SpDiam_DzZ;SpAD_DzZ;SpMAD_DzZ;LogEE_DzZ;VE1_DzZ;VE2_DzZ;VE3_DzZ;VR1_DzZ;VR2_DzZ;VR3_DzZ;SpAbs_Dzm;SpMax_Dzm;SpDiam_Dzm;SpAD_Dzm;SpMAD_Dzm;LogEE_Dzm;VE1_Dzm;VE2_Dzm;VE3_Dzm;VR1_Dzm;VR2_Dzm;VR3_Dzm;SpAbs_Dzv;SpMax_Dzv;SpDiam_Dzv;SpAD_Dzv;SpMAD_Dzv;LogEE_Dzv;VE1_Dzv;VE2_Dzv;VE3_Dzv;VR1_Dzv;VR2_Dzv;VR3_Dzv;SpAbs_Dzse;SpMax_Dzse;SpDiam_Dzse;SpAD_Dzse;SpMAD_Dzse;LogEE_Dzse;VE1_Dzse;VE2_Dzse;VE3_Dzse;VR1_Dzse;VR2_Dzse;VR3_Dzse;SpAbs_Dzpe;SpMax_Dzpe;SpDiam_Dzpe;SpAD_Dzpe;SpMAD_Dzpe;LogEE_Dzpe;VE1_Dzpe;VE2_Dzpe;VE3_Dzpe;VR1_Dzpe;VR2_Dzpe;VR3_Dzpe;SpAbs_Dzare;SpMax_Dzare;SpDiam_Dzare;SpAD_Dzare;SpMAD_Dzare;LogEE_Dzare;VE1_Dzare;VE2_Dzare;VE3_Dzare;VR1_Dzare;VR2_Dzare;VR3_Dzare;SpAbs_Dzp;SpMax_Dzp;SpDiam_Dzp;SpAD_Dzp;SpMAD_Dzp;LogEE_Dzp;VE1_Dzp;VE2_Dzp;VE3_Dzp;VR1_Dzp;VR2_Dzp;VR3_Dzp;SpAbs_Dzi;SpMax_Dzi;SpDiam_Dzi;SpAD_Dzi;SpMAD_Dzi;LogEE_Dzi;VE1_Dzi;VE2_Dzi;VE3_Dzi;VR1_Dzi;VR2_Dzi;VR3_Dzi;BertzCT;nBonds;nBondsO;nBondsS;nBondsKS;RNCG;RPCG;C1SP3;C2SP3;C3SP3;C4SP3;Xc-3d;Xc-4d;Xc-5d;Xc-6d;Xc-3dv;Xc-4dv;Xc-5dv;Xc-6dv;Xpc-4d;Xpc-5d;Xpc-6d;Xpc-4dv;Xpc-5dv;Xpc-6dv;Xp-0d;Xp-1d;Xp-2d;Xp-3d;Xp-4d;Xp-5d;Xp-6d;Xp-7d;AXp-0d;AXp-1d;Xp-0dv;Xp-1dv;Xp-2dv;Xp-3dv;Xp-4dv;Xp-5dv;Xp-6dv;Xp-7dv;AXp-0dv;AXp-1dv;SZ;Sm;Sv;Sse;Spe;Sare;Sp;Si;MZ;Mm;Mv;Mse;Mpe;Mare;Mp;Mi;SpAbs_D;SpMax_D;SpDiam_D;SpAD_D;SpMAD_D;LogEE_D;VE1_D;VE2_D;VE3_D;VR1_D;VR2_D;VR3_D;NsCH3;NssCH2;NsssCH;NssssC;SsCH3;SssCH2;SsssCH;SssssC;MAXsCH3;MINsCH3;ECIndex;ETA_alpha;ETA_shape_p;ETA_shape_y;ETA_shape_x;ETA_beta;AETA_beta;ETA_beta_s;AETA_beta_s;ETA_eta;AETA_eta;ETA_eta_L;AETA_eta_L;ETA_eta_R;AETA_eta_R;ETA_eta_RL;AETA_eta_RL;ETA_eta_B;AETA_eta_B;ETA_eta_BR;AETA_eta_BR;ETA_epsilon_1;ETA_epsilon_2;ETA_epsilon_3;ETA_epsilon_4;ETA_epsilon_5;ETA_dBeta;AETA_dBeta;ETA_psi_1;ETA_dPsi_B;fragCpx;IC0;IC1;IC2;IC3;IC4;IC5;TIC0;TIC1;TIC2;TIC3;TIC4;TIC5;SIC0;SIC1;SIC2;SIC3;SIC4;SIC5;BIC0;BIC1;BIC2;BIC3;BIC4;BIC5;CIC0;CIC1;CIC2;CIC3;CIC4;CIC5;MIC0;MIC1;MIC2;MIC3;MIC4;MIC5;ZMIC0;ZMIC1;ZMIC2;ZMIC3;ZMIC4;ZMIC5;Kier1;Lipinski;GhoseFilter;FilterItLogS;VMcGowan;LabuteASA;PEOE_VSA6;PEOE_VSA7;SMR_VSA4;SMR_VSA5;SlogP_VSA4;SlogP_VSA5;EState_VSA3;EState_VSA4;EState_VSA5;EState_VSA7;EState_VSA8;VSA_EState4;VSA_EState5;VSA_EState7;VSA_EState8;MDEC-11;MID;AMID;MID_C;AMID_C;MPC2;MPC3;MPC4;MPC5;MPC6;MPC7;MPC8;MPC9;MPC10;TMPC10;piPC1;piPC2;piPC3;piPC4;piPC5;piPC6;piPC7;piPC8;piPC9;piPC10;TpiPC10;apol;bpol;nRot;RotRatio;SLogP;SMR;GGI1;GGI2;GGI3;GGI4;GGI5;GGI6;GGI7;GGI8;GGI9;GGI10;JGI1;JGI2;JGI3;JGI4;JGI5;JGI6;JGI7;JGI8;JGI9;JGI10;JGT10;Diameter;Radius;TopoShapeIndex;PetitjeanIndex;Vabc;VAdjMat;MWC01;MWC02;MWC03;MWC04;MWC05;MWC06;MWC07;MWC08;MWC09;MWC10;TMWC10;SRW02;SRW04;SRW06;SRW08;SRW10;TSRW10;MW;AMW;WPath;WPol;Zagreb1;Zagreb2;mZagreb1;mZagreb2
140.6;CCCCC(C)C(C)C;2,3-dimethylheptane;WBRFDUJXCLCKPX-UHFFFAOYSA-N;10.1750840325276;2.0839681098273;4.167936219654601;10.1750840325276;1.1305648925030667;3.0184407228893626;2.70583831118657;0.3006487012429522;0.8900512603419768;28.747142349156938;3.1941269276841044;3.2531778500943056;29.0;9.0;20.0;9.0;34.0;34.0;30.0;22.0;15.0;8.0;2.0;0.0;0.0;54.0;64.0;113.0;124.0;113.0;96.0;57.0;36.0;18.0;46.30555555555556;54.94444444444444;84.58333333333331;111.33333333333333;118.0;94.33333333333333;66.0;48.0;18.0;344.0;408.0;519.0;542.0;446.0;322.0;215.0;96.0;18.0;1318.6983689999995;1396.2547279999997;1676.830689;1640.599976;1220.0003809999998;890.1513639999998;554.0394739999999;169.670592;18.289152;4433.327004362572;5682.86754140501;7720.006773323481;8556.303991278532;7658.758219201706;5648.125410971521;3856.692252820428;2122.84926278855;559.5073997567447;202.2339240000001;202.67676799999998;382.17056399999996;505.474208;563.474228;495.799312;311.958344;246.65472;120.932352;155.32250000000002;164.22;299.4225;391.03999999999996;429.6125;372.07000000000005;236.52499999999998;183.48000000000002;87.12;153.05;160.0;293.85;384.84000000000003;424.17;368.64000000000004;233.82000000000002;182.16;87.12;33.992358096980006;44.582086200000006;65.175622872735;76.185819306074;73.15447416426201;56.105768443054004;38.074783011527;24.033241436376;8.003032287282;4839.50224529498;4076.805802978;8508.590416560735;11640.870614440675;13479.499370461665;12382.085467159253;7569.1456629957265;6275.494221136776;3328.5177364364818;1.1724137931034482;1.2142857142857142;0.5555555555555556;0.3055555555555556;1.8620689655172413;2.2857142857142856;2.0925925925925926;1.7222222222222223;1.5967432950191571;1.9623015873015872;1.5663580246913578;1.5462962962962963;11.862068965517242;14.571428571428571;9.61111111111111;7.527777777777778;45.47235755172412;49.86624028571428;31.052420166666664;22.78611077777778;152.8733449780197;202.95955505017895;142.96308839487926;118.83755543442405;6.9735835862068996;7.238455999999999;7.077232666666666;7.020475111111111;5.35594827586207;5.865;5.5448611111111115;5.431111111111111;5.277586206896552;5.714285714285714;5.441666666666667;5.345000000000001;1.172150279206207;1.5922173642857145;1.2069559791247224;1.0581363792510277;166.8793877687924;145.6002072492143;157.56648919556918;161.67875853389828;0.04082091568896756;-0.007223229000398747;-0.005394845338809295;-0.007267147593799694;-0.013051339680395055;0.011732977964557353;-0.005373660246172512;-0.003501592315954315;0.00966837836648849;25.172413793103445;7.212841854934599;-9.838287752675388;-12.359096313912008;-3.378121284185495;0.12366230677764678;-4.164090368608798;4.337693222354341;5.479191438763378;9.310344827586206;2.8727705112960757;-4.888228299643282;-3.3912009512485137;-0.5219976218787155;-1.5980975029726512;-0.2746730083234241;2.097502972651606;1.048751486325803;3.6609195402298855;-1.7013476020610387;0.28369005152596105;0.14645263575109002;-1.7799246928260006;1.3361078081648834;-0.005449861276258183;-0.9239001189060643;0.8139120095124852;155.17241379310346;-11.890606420927488;-17.39001189060644;-45.60047562425685;-52.3781212841855;40.606420927467326;-27.853745541022583;-6.420927467300817;43.34126040428063;751.4441937931032;-57.5819305588583;-84.2135734423304;-220.8267036932222;-253.64840411177167;196.64229285850158;-134.8856723341261;-31.094242501783704;209.88613688703907;1397.342566174485;-107.07605871068866;-156.59873586438215;-410.6366851554907;-471.67003862058306;365.6647404970015;-250.82566752978792;-57.821071703771814;390.2922340004598;0.14720275862068946;-0.01127990487514695;-0.016496860879903555;-0.04325843519619412;-0.049687980975029876;0.038520875148631215;-0.026423177170035998;-0.006091148632581184;0.04111525326991572;0.7603448275862053;-0.05826397146254695;-0.08521105826397327;-0.22344233055885931;-0.2566527942925081;0.1989714625445913;-0.13648335315100993;-0.031462544589772636;0.21237217598097607;0.5586206896551719;-0.04280618311534082;-0.06260404280618458;-0.1641617122473254;-0.18856123662306729;0.14618311533888362;-0.1002734839476808;-0.02311533888228188;0.15602853745541123;6.246771423200688;-0.478679802544111;-0.7000692112207643;-1.835737042756676;-2.108584530206823;1.6346915256881474;-1.1213074374595877;-0.25848709337382314;1.7447878802732941;33.932561514511;-2.6001962846370494;-3.802787066281554;-9.971752751582446;-11.453864633825335;8.879670312035023;-6.090959796761799;-1.4041059937037965;9.477715457501462;0.0014076177823781919;-0.0002579724642999553;-9.990454331128325e-05;-0.0001009326054694402;0.868014268727705;0.25760149481909284;-0.1821905139384331;-0.17165411547100012;0.3210463733650416;0.1025989468320027;-0.09052274628969041;-0.04710001321178491;0.1262386048355133;-0.060762414359322815;0.0052535194727029826;0.0020340643854318058;5.35077288941736;-0.4246645150331246;-0.3220372572334526;-0.6333399392257896;25.911868751486317;-2.0564975199592253;-1.5595106193024149;-3.067037551294753;48.184226419809825;-3.8241449539531662;-2.8999765900811507;-5.70328729382626;0.005075957193816878;-0.0004028537455409625;-0.0003054974237019177;-0.0006008115999471406;0.026218787158145008;-0.002080856123662391;-0.0015779825604439494;-0.0031033657022063793;0.01926278240190248;-0.001528792254119315;-0.0011593341260404551;-0.0022800237812128526;0.2154059111448513;-0.01709570723371825;-0.012964244652236376;-0.025496347816064944;1.1700883280865861;-0.09286415302275176;-0.07042198270891767;-0.13849656599420065;-0.18326883016787898;-0.07097419808273023;-0.07170455412897173;0.29677103718199604;-0.20989345509893462;-0.19775494672754948;-0.48132989459520076;0.0416157916157916;0.016112855398569687;-0.0793650793650795;-0.060185185185185244;-0.11836419753086423;-0.07936507936507912;-0.06018518518518509;-0.11836419753086418;-0.07936507936507947;-0.06018518518518526;-0.11836419753086427;-0.07936507936506763;-0.06018518518518044;-0.11836419753086194;-0.07936507936508275;-0.06018518518518659;-0.11836419753086488;-0.07936507936508304;-0.060185185185186646;-0.11836419753086488;-0.07936507936507887;-0.06018518518518498;-0.11836419753086412;-0.0793650793650852;-0.060185185185187534;-0.11836419753086531;1.715311718761536;1.151813736033498;1.124529497856764;1.3506849315068494;1.9156773211567737;1.42130898021309;2.094191522762951;0.8026048026048024;0.9826007326007323;1.6111111111111112;1.2530864197530864;1.1904320987654322;1.6111111111111116;1.253086419753087;1.1904320987654327;1.6111111111111116;1.2530864197530869;1.1904320987654324;1.6111111111111116;1.2530864197530867;1.1904320987654327;1.6111111111111112;1.2530864197530869;1.1904320987654322;1.6111111111111107;1.253086419753086;1.190432098765432;1.6111111111111114;1.2530864197530867;1.1904320987654324;1.611111111111111;1.2530864197530867;1.1904320987654322;0.21616032320483036;-0.2214382095073082;3.113425975793946;0.9871402497105493;3.113425975793946;0.9871402497105493;2.0382199087144413;1.1925414558784428;6.221025566133711;5.784341630615043;12.23202556613371;11.795341630615045;20.800551842249256;20.36386790673057;2.9670255661337217;2.5303416306150397;2.771025566133723;2.3343416306150413;2.721025566133721;2.2843416306150406;1.8910255661337185;1.454341630615043;11.481325566133716;11.04464163061504;3.1552800835051924;47.1081863104003;23.55409315520015;35.91182605481506;47.1081863104003;5.234242923377811;23.55409315539511;2.9506631763382765;0.32785146403758625;0.9766694349673224;26.783207618467635;2.975911957607515;3.1824145940743596;47.1081863104003;23.55409315520015;35.91182605481506;47.1081863104003;5.234242923377811;23.55409315539511;2.9506631763382765;0.32785146403758625;0.9766694349673224;26.783207618467635;2.975911957607515;3.1824145940743596;47.1081863104003;23.55409315520015;35.91182605481506;47.1081863104003;5.234242923377811;23.55409315539511;2.9506631763382765;0.32785146403758625;0.9766694349673224;26.783207618467635;2.975911957607515;3.1824145940743596;47.1081863104003;23.55409315520015;35.91182605481506;47.1081863104003;5.234242923377811;23.55409315539511;2.9506631763382765;0.32785146403758625;0.9766694349673224;26.783207618467635;2.975911957607515;3.1824145940743596;47.1081863104003;23.55409315520015;35.91182605481506;47.1081863104003;5.234242923377811;23.55409315539511;2.9506631763382765;0.32785146403758625;0.9766694349673224;26.783207618467635;2.975911957607515;3.1824145940743596;47.1081863104003;23.55409315520015;35.91182605481506;47.1081863104003;5.234242923377811;23.55409315539511;2.9506631763382765;0.32785146403758625;0.9766694349673224;26.783207618467635;2.975911957607515;3.1824145940743596;47.1081863104003;23.55409315520015;35.91182605481506;47.1081863104003;5.234242923377811;23.55409315539511;2.9506631763382765;0.32785146403758625;0.9766694349673224;26.783207618467635;2.975911957607515;3.1824145940743596;47.1081863104003;23.55409315520015;35.91182605481506;47.1081863104003;5.234242923377811;23.55409315539511;2.9506631763382765;0.32785146403758625;0.9766694349673224;26.783207618467635;2.975911957607515;3.1824145940743596;55.058650025961626;28.0;8.0;28.0;28.0;0.1309897134423622;0.060601510803535895;4.0;3.0;2.0;0.0;0.5690355937288492;0.0;0.23570226039551584;0.0;0.5690355937288492;0.0;0.23570226039551584;0.0;1.2071067811865475;0.6178511301977578;0.6380711874576983;1.2071067811865475;0.6178511301977578;0.6380711874576983;7.276020881938894;4.180739212552622;3.3635293452370916;2.151090524544383;0.8594327539949542;0.5576775358252053;0.23570226039551584;0.0;0.8084467646598772;0.5225924015690777;7.276020881938894;4.180739212552622;3.3635293452370916;2.151090524544383;0.8594327539949542;0.5576775358252053;0.23570226039551584;0.0;0.8084467646598772;0.5225924015690777;12.33333333333333;10.678461410373828;14.418278037858745;27.87836853605244;26.254901960784316;26.599999999999998;16.985544910179645;33.15289645924176;0.425287356321839;0.3682228072542699;0.49718200130547396;0.9613230529673256;0.9053414469235971;0.9172413793103448;0.5857084451786084;1.1432033261807504;47.1081863104003;23.55409315520015;35.91182605481506;47.1081863104003;5.234242923377811;23.55409315539511;2.9506631763382765;0.32785146403758625;0.9766694349673224;26.783207618467635;2.975911957607515;3.1824145940743596;4.0;3.0;2.0;0.0;9.216296296296296;4.157314814814815;1.7930555555555554;0.0;2.3475462962962963;2.256990740740741;74.0;4.5;0.4444444444444444;0.2222222222222222;0.0;4.0;0.4444444444444444;4.0;0.4444444444444444;10.502136748661268;1.1669040831845854;4.180739212552621;0.46452657917251344;10.502136748661268;1.1669040831845854;4.180739212552621;0.46452657917251344;0.2334743498204741;0.025941594424497123;0.2334743498204741;0.025941594424497123;0.4241379310344827;0.7;0.4241379310344827;0.4241379310344827;0.7;-4.0;-0.4444444444444444;0.7142857142857143;0.00028571428571433355;8.0;0.8935711016541907;1.3685517054754786;2.6068012532260454;3.4343874601225974;3.7193758224153695;3.7193758224153695;25.91356194797153;39.68799945878888;75.59723634355532;99.59723634355532;107.86189885004572;107.86189885004572;0.18393878085369605;0.28171203363045266;0.5366017808304724;0.7069577801080734;0.7656217317741272;0.7656217317741272;0.18587583320595183;0.28467873241398256;0.5422527139124366;0.7144027257826513;0.7736844653074696;0.7736844653074696;3.9644098934733814;3.4894292896520933;2.2511797419015265;1.4235935350049744;1.1386051727122024;1.1386051727122024;6.664965218283638;12.369957250781123;17.412250725948176;19.291699939269023;19.57896820846014;19.57896820846014;35.68332320783173;26.142133731356516;21.80019198262773;17.890626949943776;17.013154424419042;17.013154424419042;9.0;1.0;0.0;-2.7006147003950467;137.67000000000004;59.6587879430024;46.95741366754052;11.835812092322787;11.835812092322787;46.95741366754052;11.835812092322787;46.95741366754052;0.0;11.835812092322787;19.26246486877803;0.0;27.694948798762496;0.0;1.7930555555555554;4.157314814814815;9.216296296296296;1.5597694695785527;16.4914405926025;1.8323822880669445;16.4914405926025;1.8323822880669445;9.0;8.0;5.0;4.0;2.0;0.0;0.0;0.0;0.0;45.0;2.1972245773362196;2.302585092994046;2.1972245773362196;1.791759469228055;1.6094379124341003;1.0986122886681098;0.0;0.0;0.0;0.0;3.828641396489095;28.365859999999998;20.06414;4.0;0.5;3.468700000000003;43.52700000000001;2.0;1.1111111111111116;0.375;0.24000000000000005;0.1111111111111111;0.0;0.0;0.0;0.0;0.0;0.25;0.12345679012345687;0.046875;0.04800000000000001;0.027777777777777776;0.0;0.0;0.0;0.0;0.0;0.4961095679012346;6.0;3.0;1.0;0.5;164.22032596245742;4.0;8.0;3.5553480614894135;4.23410650459726;4.962844630259907;5.680172609017068;6.411818267709897;7.13966033596492;7.872836175025724;8.60392119492606;9.337941716569905;74.79864949556016;2.833213344056216;3.970291913552122;5.2832037287379885;6.670766320845874;8.094683648698815;35.852158955891014;128.15650064;4.419189677241379;102.0;8.0;34.0;34.0;4.972222222222222;2.2777777777777777