boiling_point;SMILES;IUPAC_name;InChIKey;SpAbs_A;SpMax_A;SpDiam_A;SpAD_A;SpMAD_A;LogEE_A;VE1_A;VE2_A;VE3_A;VR1_A;VR2_A;VR3_A;nAtom;nHeavyAtom;nH;nC;ATS0dv;ATS1dv;ATS2dv;ATS3dv;ATS4dv;ATS5dv;ATS6dv;ATS7dv;ATS8dv;ATS0d;ATS1d;ATS2d;ATS3d;ATS4d;ATS5d;ATS6d;ATS7d;ATS8d;ATS0s;ATS1s;ATS2s;ATS3s;ATS4s;ATS5s;ATS6s;ATS7s;ATS8s;ATS0Z;ATS1Z;ATS2Z;ATS3Z;ATS4Z;ATS5Z;ATS6Z;ATS7Z;ATS8Z;ATS0m;ATS1m;ATS2m;ATS3m;ATS4m;ATS5m;ATS6m;ATS7m;ATS8m;ATS0v;ATS1v;ATS2v;ATS3v;ATS4v;ATS5v;ATS6v;ATS7v;ATS8v;ATS0se;ATS1se;ATS2se;ATS3se;ATS4se;ATS5se;ATS6se;ATS7se;ATS8se;ATS0pe;ATS1pe;ATS2pe;ATS3pe;ATS4pe;ATS5pe;ATS6pe;ATS7pe;ATS8pe;ATS0are;ATS1are;ATS2are;ATS3are;ATS4are;ATS5are;ATS6are;ATS7are;ATS8are;ATS0p;ATS1p;ATS2p;ATS3p;ATS4p;ATS5p;ATS6p;ATS7p;ATS8p;ATS0i;ATS1i;ATS2i;ATS3i;ATS4i;ATS5i;ATS6i;ATS7i;ATS8i;AATS0dv;AATS1dv;AATS2dv;AATS3dv;AATS0d;AATS1d;AATS2d;AATS3d;AATS0s;AATS1s;AATS2s;AATS3s;AATS0Z;AATS1Z;AATS2Z;AATS3Z;AATS0m;AATS1m;AATS2m;AATS3m;AATS0v;AATS1v;AATS2v;AATS3v;AATS0se;AATS1se;AATS2se;AATS3se;AATS0pe;AATS1pe;AATS2pe;AATS3pe;AATS0are;AATS1are;AATS2are;AATS3are;AATS0p;AATS1p;AATS2p;AATS3p;AATS0i;AATS1i;AATS2i;AATS3i;ATSC0c;ATSC1c;ATSC2c;ATSC3c;ATSC4c;ATSC5c;ATSC6c;ATSC7c;ATSC8c;ATSC0dv;ATSC1dv;ATSC2dv;ATSC3dv;ATSC4dv;ATSC5dv;ATSC6dv;ATSC7dv;ATSC8dv;ATSC0d;ATSC1d;ATSC2d;ATSC3d;ATSC4d;ATSC5d;ATSC6d;ATSC7d;ATSC8d;ATSC0s;ATSC1s;ATSC2s;ATSC3s;ATSC4s;ATSC5s;ATSC6s;ATSC7s;ATSC8s;ATSC0Z;ATSC1Z;ATSC2Z;ATSC3Z;ATSC4Z;ATSC5Z;ATSC6Z;ATSC7Z;ATSC8Z;ATSC0m;ATSC1m;ATSC2m;ATSC3m;ATSC4m;ATSC5m;ATSC6m;ATSC7m;ATSC8m;ATSC0v;ATSC1v;ATSC2v;ATSC3v;ATSC4v;ATSC5v;ATSC6v;ATSC7v;ATSC8v;ATSC0se;ATSC1se;ATSC2se;ATSC3se;ATSC4se;ATSC5se;ATSC6se;ATSC7se;ATSC8se;ATSC0pe;ATSC1pe;ATSC2pe;ATSC3pe;ATSC4pe;ATSC5pe;ATSC6pe;ATSC7pe;ATSC8pe;ATSC0are;ATSC1are;ATSC2are;ATSC3are;ATSC4are;ATSC5are;ATSC6are;ATSC7are;ATSC8are;ATSC0p;ATSC1p;ATSC2p;ATSC3p;ATSC4p;ATSC5p;ATSC6p;ATSC7p;ATSC8p;ATSC0i;ATSC1i;ATSC2i;ATSC3i;ATSC4i;ATSC5i;ATSC6i;ATSC7i;ATSC8i;AATSC0c;AATSC1c;AATSC2c;AATSC3c;AATSC0dv;AATSC1dv;AATSC2dv;AATSC3dv;AATSC0d;AATSC1d;AATSC2d;AATSC3d;AATSC0s;AATSC1s;AATSC2s;AATSC3s;AATSC0Z;AATSC1Z;AATSC2Z;AATSC3Z;AATSC0m;AATSC1m;AATSC2m;AATSC3m;AATSC0v;AATSC1v;AATSC2v;AATSC3v;AATSC0se;AATSC1se;AATSC2se;AATSC3se;AATSC0pe;AATSC1pe;AATSC2pe;AATSC3pe;AATSC0are;AATSC1are;AATSC2are;AATSC3are;AATSC0p;AATSC1p;AATSC2p;AATSC3p;AATSC0i;AATSC1i;AATSC2i;AATSC3i;MATS1c;MATS2c;MATS3c;MATS1dv;MATS2dv;MATS3dv;MATS1s;MATS2s;MATS3s;MATS1Z;MATS2Z;MATS3Z;MATS1m;MATS2m;MATS3m;MATS1v;MATS2v;MATS3v;MATS1se;MATS2se;MATS3se;MATS1pe;MATS2pe;MATS3pe;MATS1are;MATS2are;MATS3are;MATS1p;MATS2p;MATS3p;MATS1i;MATS2i;MATS3i;GATS1c;GATS2c;GATS3c;GATS1dv;GATS2dv;GATS3dv;GATS1s;GATS2s;GATS3s;GATS1Z;GATS2Z;GATS3Z;GATS1m;GATS2m;GATS3m;GATS1v;GATS2v;GATS3v;GATS1se;GATS2se;GATS3se;GATS1pe;GATS2pe;GATS3pe;GATS1are;GATS2are;GATS3are;GATS1p;GATS2p;GATS3p;GATS1i;GATS2i;GATS3i;BCUTc-1h;BCUTc-1l;BCUTdv-1h;BCUTdv-1l;BCUTd-1h;BCUTd-1l;BCUTs-1h;BCUTs-1l;BCUTZ-1h;BCUTZ-1l;BCUTm-1h;BCUTm-1l;BCUTv-1h;BCUTv-1l;BCUTse-1h;BCUTse-1l;BCUTpe-1h;BCUTpe-1l;BCUTare-1h;BCUTare-1l;BCUTp-1h;BCUTp-1l;BCUTi-1h;BCUTi-1l;BalabanJ;SpAbs_DzZ;SpMax_DzZ;SpDiam_DzZ;SpAD_DzZ;SpMAD_DzZ;LogEE_DzZ;VE1_DzZ;VE2_DzZ;VE3_DzZ;VR1_DzZ;VR2_DzZ;VR3_DzZ;SpAbs_Dzm;SpMax_Dzm;SpDiam_Dzm;SpAD_Dzm;SpMAD_Dzm;LogEE_Dzm;VE1_Dzm;VE2_Dzm;VE3_Dzm;VR1_Dzm;VR2_Dzm;VR3_Dzm;SpAbs_Dzv;SpMax_Dzv;SpDiam_Dzv;SpAD_Dzv;SpMAD_Dzv;LogEE_Dzv;VE1_Dzv;VE2_Dzv;VE3_Dzv;VR1_Dzv;VR2_Dzv;VR3_Dzv;SpAbs_Dzse;SpMax_Dzse;SpDiam_Dzse;SpAD_Dzse;SpMAD_Dzse;LogEE_Dzse;VE1_Dzse;VE2_Dzse;VE3_Dzse;VR1_Dzse;VR2_Dzse;VR3_Dzse;SpAbs_Dzpe;SpMax_Dzpe;SpDiam_Dzpe;SpAD_Dzpe;SpMAD_Dzpe;LogEE_Dzpe;VE1_Dzpe;VE2_Dzpe;VE3_Dzpe;VR1_Dzpe;VR2_Dzpe;VR3_Dzpe;SpAbs_Dzare;SpMax_Dzare;SpDiam_Dzare;SpAD_Dzare;SpMAD_Dzare;LogEE_Dzare;VE1_Dzare;VE2_Dzare;VE3_Dzare;VR1_Dzare;VR2_Dzare;VR3_Dzare;SpAbs_Dzp;SpMax_Dzp;SpDiam_Dzp;SpAD_Dzp;SpMAD_Dzp;LogEE_Dzp;VE1_Dzp;VE2_Dzp;VE3_Dzp;VR1_Dzp;VR2_Dzp;VR3_Dzp;SpAbs_Dzi;SpMax_Dzi;SpDiam_Dzi;SpAD_Dzi;SpMAD_Dzi;LogEE_Dzi;VE1_Dzi;VE2_Dzi;VE3_Dzi;VR1_Dzi;VR2_Dzi;VR3_Dzi;BertzCT;nBonds;nBondsO;nBondsS;nBondsKS;RNCG;RPCG;C1SP3;C2SP3;C3SP3;C4SP3;Xc-3d;Xc-4d;Xc-5d;Xc-6d;Xc-3dv;Xc-4dv;Xc-5dv;Xc-6dv;Xpc-4d;Xpc-5d;Xpc-6d;Xpc-4dv;Xpc-5dv;Xpc-6dv;Xp-0d;Xp-1d;Xp-2d;Xp-3d;Xp-4d;Xp-5d;Xp-6d;Xp-7d;AXp-0d;AXp-1d;Xp-0dv;Xp-1dv;Xp-2dv;Xp-3dv;Xp-4dv;Xp-5dv;Xp-6dv;Xp-7dv;AXp-0dv;AXp-1dv;SZ;Sm;Sv;Sse;Spe;Sare;Sp;Si;MZ;Mm;Mv;Mse;Mpe;Mare;Mp;Mi;SpAbs_D;SpMax_D;SpDiam_D;SpAD_D;SpMAD_D;LogEE_D;VE1_D;VE2_D;VE3_D;VR1_D;VR2_D;VR3_D;NsCH3;NssCH2;NsssCH;NssssC;SsCH3;SssCH2;SsssCH;SssssC;MAXsCH3;MINsCH3;ECIndex;ETA_alpha;ETA_shape_p;ETA_shape_y;ETA_shape_x;ETA_beta;AETA_beta;ETA_beta_s;AETA_beta_s;ETA_eta;AETA_eta;ETA_eta_L;AETA_eta_L;ETA_eta_R;AETA_eta_R;ETA_eta_RL;AETA_eta_RL;ETA_eta_B;AETA_eta_B;ETA_eta_BR;AETA_eta_BR;ETA_epsilon_1;ETA_epsilon_2;ETA_epsilon_3;ETA_epsilon_4;ETA_epsilon_5;ETA_dBeta;AETA_dBeta;ETA_psi_1;ETA_dPsi_B;fragCpx;IC0;IC1;IC2;IC3;IC4;IC5;TIC0;TIC1;TIC2;TIC3;TIC4;TIC5;SIC0;SIC1;SIC2;SIC3;SIC4;SIC5;BIC0;BIC1;BIC2;BIC3;BIC4;BIC5;CIC0;CIC1;CIC2;CIC3;CIC4;CIC5;MIC0;MIC1;MIC2;MIC3;MIC4;MIC5;ZMIC0;ZMIC1;ZMIC2;ZMIC3;ZMIC4;ZMIC5;Kier1;Lipinski;GhoseFilter;FilterItLogS;VMcGowan;LabuteASA;PEOE_VSA6;PEOE_VSA7;SMR_VSA4;SMR_VSA5;SlogP_VSA4;SlogP_VSA5;EState_VSA3;EState_VSA4;EState_VSA5;EState_VSA7;EState_VSA8;VSA_EState4;VSA_EState5;VSA_EState7;VSA_EState8;MDEC-11;MID;AMID;MID_C;AMID_C;MPC2;MPC3;MPC4;MPC5;MPC6;MPC7;MPC8;MPC9;MPC10;TMPC10;piPC1;piPC2;piPC3;piPC4;piPC5;piPC6;piPC7;piPC8;piPC9;piPC10;TpiPC10;apol;bpol;nRot;RotRatio;SLogP;SMR;GGI1;GGI2;GGI3;GGI4;GGI5;GGI6;GGI7;GGI8;GGI9;GGI10;JGI1;JGI2;JGI3;JGI4;JGI5;JGI6;JGI7;JGI8;JGI9;JGI10;JGT10;Diameter;Radius;TopoShapeIndex;PetitjeanIndex;Vabc;VAdjMat;MWC01;MWC02;MWC03;MWC04;MWC05;MWC06;MWC07;MWC08;MWC09;MWC10;TMWC10;SRW02;SRW04;SRW06;SRW08;SRW10;TSRW10;MW;AMW;WPath;WPol;Zagreb1;Zagreb2;mZagreb1;mZagreb2
140.0;CCCC(C)(CC)CC;3-ethyl-3-methylhexane;CYWROHZCELEGSE-UHFFFAOYSA-N;10.261125441030142;2.2059461150510953;4.4118922301021914;10.261125441030142;1.1401250490033492;3.03023837522294;2.6695824750222448;0.2966202750024716;0.8765615681301054;27.002068703100633;3.0002298559000704;3.190552966044802;29.0;9.0;20.0;9.0;36.0;38.0;36.0;24.0;10.0;2.0;0.0;0.0;0.0;56.0;66.0;120.0;134.0;126.0;102.0;54.0;18.0;0.0;46.5625;55.375;84.375;114.0;138.25;122.0;66.0;18.0;0.0;344.0;408.0;544.0;622.0;540.0;320.0;114.0;18.0;0.0;1318.6983689999995;1396.2547279999994;1797.896698;1949.2781379999997;1483.3032539999997;732.8546419999998;187.95974399999997;18.289152;0.0;4433.327004362572;5682.86754140501;7945.1341867627025;9508.476049794508;9167.473795794362;6259.29521548735;2682.3566625452945;559.5073997567447;0.0;202.2339240000001;202.67676799999998;382.19428;507.91664799999995;628.754136;619.07924;367.58707200000003;120.932352;0.0;155.32250000000002;164.22;299.54499999999996;395.905;482.53499999999997;463.565;270.6;87.12;0.0;153.05;160.0;293.94;388.97999999999996;475.74;459.53999999999996;269.28000000000003;87.12;0.0;33.992358096980006;44.5820862;66.182047157584;82.212256306678;86.18959145456401;66.109540591544;32.036273723658;8.003032287282;0.0;4839.50224529498;4076.8058029780004;8514.057329249184;11461.03381394948;14767.683899632166;15508.898752350744;9604.011957573259;3328.5177364364813;0.0;1.2413793103448276;1.3571428571428572;0.6666666666666666;0.3333333333333333;1.9310344827586208;2.357142857142857;2.2222222222222223;1.8611111111111112;1.605603448275862;1.9776785714285714;1.5625;1.5833333333333333;11.862068965517242;14.571428571428571;10.074074074074074;8.63888888888889;45.47235755172412;49.86624028571426;33.294383296296296;27.07330747222222;152.8733449780197;202.95955505017895;147.1321145696797;132.06216735825706;6.9735835862068996;7.238455999999999;7.077671851851852;7.0543978888888885;5.35594827586207;5.865;5.547129629629629;5.498680555555556;5.277586206896552;5.714285714285714;5.443333333333333;5.4025;1.172150279206207;1.5922173642857143;1.2255934658811851;1.1418368931483056;166.8793877687924;145.6002072492143;157.66772831942933;159.18102519374278;0.0401323475203272;-0.008906169617544289;0.0004278999551104337;-0.003979840735607036;-0.019932615498985805;-0.0036507276103761484;0.0064155029897478375;0.009559776757491404;0.0;27.17241379310344;11.212841854934599;-7.148632580261592;-20.29013079667063;-15.569560047562426;2.9131985731272296;9.816884661117717;5.479191438763378;0.0;11.310344827586206;4.872770511296077;-5.336504161712249;-8.287752675386445;-3.4458977407847797;2.3472057074910833;3.146254458977409;1.048751486325803;0.0;3.7155172413793114;-1.712395957193816;0.06420927467300858;0.6739744351961954;-1.3563466111771696;-0.28522592152199827;-0.07803210463733734;0.836058263971462;0.0;155.17241379310346;-11.89060642092749;7.609988109393559;-42.15219976218789;-98.81093935790727;-12.604042806183095;36.92033293697981;43.34126040428063;0.0;751.4441937931032;-57.5819305588583;36.85243555766961;-204.12794383115317;-478.5058429441141;-61.03684639239022;178.7918943852554;209.8861368870391;0.0;1397.342566174485;-107.07605871068861;68.5286775748404;-379.58462812939104;-889.8020478858217;-113.50062223332978;332.471162296688;390.2922340004598;0.0;0.14720275862068946;-0.011279904875146945;0.007219139120096416;-0.03998726278240048;-0.09373600951248465;-0.011956699167659316;0.03502410463733453;0.04111525326991572;0.0;0.7603448275862053;-0.05826397146254696;0.037288941736026524;-0.2065457788347222;-0.4841736028537451;-0.0617598097502945;0.18090963139120347;0.21237217598097607;0.0;0.5586206896551719;-0.0428061831153408;0.027395957193815323;-0.15174791914387775;-0.3557193816884661;-0.04537455410225707;0.13291319857312933;0.15602853745541123;0.0;6.246771423200688;-0.47867980254411097;0.3063550736282352;-1.6969199000188822;-3.9778291591415873;-0.5074005906967642;1.4863007868994706;1.7447878802732941;0.0;33.932561514511;-2.6001962846370503;1.6641256221674392;-9.217695829037819;-21.607631125332333;-2.7562080617148643;8.073609463797666;9.477715457501462;0.0;0.0013838740524250758;-0.0003180774863408674;7.92407324278581e-06;-5.5275565772319946e-05;0.9369797859690842;0.4004586376762357;-0.1323820848196591;-0.281807372175981;0.3900118906064209;0.17402751826057417;-0.09882415114281942;-0.11510767604703395;0.12812128418549348;-0.061156998471207716;0.0011890606420927514;0.009360756044391603;5.35077288941736;-0.42466451503312463;0.14092570572951035;-0.5854472189192763;25.911868751486317;-2.0564975199592253;0.682452510327215;-2.8351103309882384;48.184226419809825;-3.824144953953165;1.2690495847192667;-5.27200872401932;0.005075957193816878;-0.0004028537455409623;0.00013368776148326697;-0.0005553786497555622;0.026218787158145008;-0.0020808561236623914;0.0006905359580745653;-0.002868691372704475;0.01926278240190248;-0.001528792254119314;0.0005073325406262097;-0.002107609988109413;0.2154059111448513;-0.017095707233718248;0.005673242104226578;-0.023568331944706696;1.1700883280865861;-0.09286415302275179;0.030817141151248874;-0.12802355318108083;-0.22984568991916152;0.005726007528575168;-0.039942627492332884;0.42739303843364757;-0.1412859560067682;-0.30076142131979705;-0.4773367583692406;0.009280742459396786;0.07306167826759476;-0.0793650793650795;0.026337448559670712;-0.10941358024691362;-0.07936507936507912;0.02633744855967091;-0.1094135802469135;-0.07936507936507944;0.026337448559670688;-0.10941358024691367;-0.07936507936506759;0.026337448559675528;-0.10941358024690984;-0.07936507936508276;0.026337448559669414;-0.10941358024691468;-0.07936507936508298;0.026337448559669307;-0.10941358024691471;-0.07936507936507886;0.026337448559670976;-0.10941358024691346;-0.07936507936508522;0.026337448559668408;-0.10941358024691544;1.764973068860829;1.0407371019107992;1.0919203296024669;1.2512690355329952;2.175408911449521;1.7603637901861258;2.0858468677494195;0.8373292085589067;0.853683294663573;1.6111111111111112;1.1695473251028807;1.2530864197530864;1.6111111111111116;1.1695473251028812;1.2530864197530869;1.6111111111111116;1.1695473251028812;1.2530864197530869;1.6111111111111116;1.1695473251028812;1.2530864197530869;1.6111111111111112;1.169547325102881;1.2530864197530864;1.6111111111111107;1.1695473251028803;1.2530864197530862;1.6111111111111112;1.1695473251028807;1.2530864197530867;1.611111111111111;1.1695473251028807;1.2530864197530864;0.2224615204186744;-0.2371290311134089;4.0189409855062745;0.9871362569206167;4.0189409855062745;0.9871362569206167;2.0306022432715416;1.1468028880383265;6.2312790845346;5.77411240260326;12.242279084534596;11.785112402603238;20.810805360650107;20.353638678718784;2.9772790845346027;2.5201124026032447;2.7812790845346034;2.3241124026032463;2.7312790845346067;2.2741124026032473;1.901279084534604;1.4441124026032488;11.491579084534608;11.034412402603252;3.6173893085936086;42.66979071285059;21.334895356425296;29.722135827871476;42.66979071285059;4.741087856983399;21.33489535818775;2.9439124341666756;0.3271013815740751;0.9743789409371929;27.68673882221019;3.0763043135789103;3.215593040021007;42.66979071285059;21.334895356425296;29.722135827871476;42.66979071285059;4.741087856983399;21.33489535818775;2.9439124341666756;0.3271013815740751;0.9743789409371929;27.68673882221019;3.0763043135789103;3.215593040021007;42.66979071285059;21.334895356425296;29.722135827871476;42.66979071285059;4.741087856983399;21.33489535818775;2.9439124341666756;0.3271013815740751;0.9743789409371929;27.68673882221019;3.0763043135789103;3.215593040021007;42.66979071285059;21.334895356425296;29.722135827871476;42.66979071285059;4.741087856983399;21.33489535818775;2.9439124341666756;0.3271013815740751;0.9743789409371929;27.68673882221019;3.0763043135789103;3.215593040021007;42.66979071285059;21.334895356425296;29.722135827871476;42.66979071285059;4.741087856983399;21.33489535818775;2.9439124341666756;0.3271013815740751;0.9743789409371929;27.68673882221019;3.0763043135789103;3.215593040021007;42.66979071285059;21.334895356425296;29.722135827871476;42.66979071285059;4.741087856983399;21.33489535818775;2.9439124341666756;0.3271013815740751;0.9743789409371929;27.68673882221019;3.0763043135789103;3.215593040021007;42.66979071285059;21.334895356425296;29.722135827871476;42.66979071285059;4.741087856983399;21.33489535818775;2.9439124341666756;0.3271013815740751;0.9743789409371929;27.68673882221019;3.0763043135789103;3.215593040021007;42.66979071285059;21.334895356425296;29.722135827871476;42.66979071285059;4.741087856983399;21.33489535818775;2.9439124341666756;0.3271013815740751;0.9743789409371929;27.68673882221019;3.0763043135789103;3.215593040021007;60.438561897747256;28.0;8.0;28.0;28.0;0.1325428926399136;0.05515809788855433;4.0;4.0;0.0;1.0;0.9267766952966369;0.1767766952966369;0.0;0.0;0.9267766952966369;0.1767766952966369;0.0;0.0;1.8321067811865475;1.9874368670764584;1.2803300858899107;1.8321067811865475;1.9874368670764584;1.2803300858899107;7.328427124746191;4.181980515339464;3.2677669529663693;2.5606601717798214;1.2071067811865475;0.3535533905932738;0.0;0.0;0.8142696805273545;0.522747564417433;7.328427124746191;4.181980515339464;3.2677669529663693;2.5606601717798214;1.2071067811865475;0.3535533905932738;0.0;0.0;0.8142696805273545;0.522747564417433;12.33333333333333;10.678461410373828;14.418278037858745;27.87836853605244;26.254901960784316;26.599999999999998;16.985544910179645;33.15289645924176;0.425287356321839;0.3682228072542699;0.49718200130547396;0.9613230529673256;0.9053414469235971;0.9172413793103448;0.5857084451786084;1.1432033261807504;42.66979071285059;21.334895356425296;29.722135827871476;42.66979071285059;4.741087856983399;21.33489535818775;2.9439124341666756;0.3271013815740751;0.9743789409371929;27.68673882221019;3.0763043135789103;3.215593040021007;4.0;4.0;0.0;1.0;9.23451388888889;5.381805555555555;0.0;0.6336805555555555;2.385416666666667;2.2674305555555554;61.0;4.5;0.4444444444444444;0.0;0.1111111111111111;4.0;0.4444444444444444;4.0;0.4444444444444444;10.97525552283999;1.21947283587111;4.181980515339464;0.4646645017043849;10.97525552283999;1.21947283587111;4.181980515339464;0.4646645017043849;0.23223304703363112;0.025803671892625682;0.23223304703363112;0.025803671892625682;0.4241379310344827;0.7;0.4241379310344827;0.4241379310344827;0.7;-4.0;-0.4444444444444444;0.7142857142857143;0.00028571428571433355;8.0;0.8935711016541907;1.3256167917569774;2.3140348740649053;3.1585253911570796;3.4435137534498526;3.4435137534498526;25.91356194797153;38.44288696095234;67.10701134788225;91.59723634355531;99.86189885004572;99.86189885004572;0.18393878085369605;0.27287401763953717;0.4763367490292411;0.6501724470155397;0.7088363986815936;0.7088363986815936;0.18587583320595183;0.27574764361055293;0.48135303333802354;0.6570193884925797;0.7163011280173981;0.7163011280173981;3.9644098934733814;3.5323642033705944;2.5439461210626666;1.6994556039704922;1.4144672416777193;1.4144672416777193;6.664965218283638;11.854266002108208;16.358314629546854;18.25480338754489;18.542071656736006;18.542071656736006;35.68332320783173;27.32073783211528;23.729363218853738;19.78288839452331;18.905415868998574;18.905415868998574;9.0;1.0;0.0;-3.056954700395046;137.67000000000004;59.658787943002416;46.95741366754052;11.83581209232279;5.41499046939678;53.378235290466534;5.41499046939678;53.378235290466534;5.41499046939678;0.0;25.683286491704038;0.0;27.694948798762496;0.6336805555555555;0.0;5.381805555555555;9.23451388888889;1.5326188647871062;16.423859120657514;1.8248732356286128;16.423859120657514;1.8248732356286128;10.0;10.0;6.0;2.0;0.0;0.0;0.0;0.0;0.0;45.0;2.1972245773362196;2.3978952727983707;2.3978952727983707;1.9459101490553132;1.0986122886681098;0.0;0.0;0.0;0.0;0.0;3.828641396489095;28.365859999999998;20.06414;4.0;0.5;3.6128000000000027;43.59700000000001;3.0;1.333333333333334;0.5;0.16000000000000003;0.0;0.0;0.0;0.0;0.0;0.0;0.375;0.1333333333333334;0.049999999999999996;0.026666666666666672;0.0;0.0;0.0;0.0;0.0;0.0;0.585;5.0;3.0;0.6666666666666666;0.4;164.22032596245742;4.0;8.0;3.6109179126442243;4.343805421853684;5.153291594497779;5.910796644040527;6.727431724850855;7.489412083508719;8.307705966549513;9.070733417589766;9.889439336810069;77.50353410234514;2.833213344056216;4.04305126783455;5.501258210544727;7.0431599159883405;8.61195776786066;37.032640506284494;128.15650064;4.419189677241379;92.0;10.0;36.0;38.0;5.0625;2.375