boiling_point;SMILES;IUPAC_name;InChIKey;SpAbs_A;SpMax_A;SpDiam_A;SpAD_A;SpMAD_A;LogEE_A;VE1_A;VE2_A;VE3_A;VR1_A;VR2_A;VR3_A;nAtom;nHeavyAtom;nH;nC;ATS0dv;ATS1dv;ATS2dv;ATS3dv;ATS4dv;ATS5dv;ATS6dv;ATS7dv;ATS8dv;ATS0d;ATS1d;ATS2d;ATS3d;ATS4d;ATS5d;ATS6d;ATS7d;ATS8d;ATS0s;ATS1s;ATS2s;ATS3s;ATS4s;ATS5s;ATS6s;ATS7s;ATS8s;ATS0Z;ATS1Z;ATS2Z;ATS3Z;ATS4Z;ATS5Z;ATS6Z;ATS7Z;ATS8Z;ATS0m;ATS1m;ATS2m;ATS3m;ATS4m;ATS5m;ATS6m;ATS7m;ATS8m;ATS0v;ATS1v;ATS2v;ATS3v;ATS4v;ATS5v;ATS6v;ATS7v;ATS8v;ATS0se;ATS1se;ATS2se;ATS3se;ATS4se;ATS5se;ATS6se;ATS7se;ATS8se;ATS0pe;ATS1pe;ATS2pe;ATS3pe;ATS4pe;ATS5pe;ATS6pe;ATS7pe;ATS8pe;ATS0are;ATS1are;ATS2are;ATS3are;ATS4are;ATS5are;ATS6are;ATS7are;ATS8are;ATS0p;ATS1p;ATS2p;ATS3p;ATS4p;ATS5p;ATS6p;ATS7p;ATS8p;ATS0i;ATS1i;ATS2i;ATS3i;ATS4i;ATS5i;ATS6i;ATS7i;ATS8i;AATS0dv;AATS1dv;AATS2dv;AATS3dv;AATS0d;AATS1d;AATS2d;AATS3d;AATS0s;AATS1s;AATS2s;AATS3s;AATS0Z;AATS1Z;AATS2Z;AATS3Z;AATS0m;AATS1m;AATS2m;AATS3m;AATS0v;AATS1v;AATS2v;AATS3v;AATS0se;AATS1se;AATS2se;AATS3se;AATS0pe;AATS1pe;AATS2pe;AATS3pe;AATS0are;AATS1are;AATS2are;AATS3are;AATS0p;AATS1p;AATS2p;AATS3p;AATS0i;AATS1i;AATS2i;AATS3i;ATSC0c;ATSC1c;ATSC2c;ATSC3c;ATSC4c;ATSC5c;ATSC6c;ATSC7c;ATSC8c;ATSC0dv;ATSC1dv;ATSC2dv;ATSC3dv;ATSC4dv;ATSC5dv;ATSC6dv;ATSC7dv;ATSC8dv;ATSC0d;ATSC1d;ATSC2d;ATSC3d;ATSC4d;ATSC5d;ATSC6d;ATSC7d;ATSC8d;ATSC0s;ATSC1s;ATSC2s;ATSC3s;ATSC4s;ATSC5s;ATSC6s;ATSC7s;ATSC8s;ATSC0Z;ATSC1Z;ATSC2Z;ATSC3Z;ATSC4Z;ATSC5Z;ATSC6Z;ATSC7Z;ATSC8Z;ATSC0m;ATSC1m;ATSC2m;ATSC3m;ATSC4m;ATSC5m;ATSC6m;ATSC7m;ATSC8m;ATSC0v;ATSC1v;ATSC2v;ATSC3v;ATSC4v;ATSC5v;ATSC6v;ATSC7v;ATSC8v;ATSC0se;ATSC1se;ATSC2se;ATSC3se;ATSC4se;ATSC5se;ATSC6se;ATSC7se;ATSC8se;ATSC0pe;ATSC1pe;ATSC2pe;ATSC3pe;ATSC4pe;ATSC5pe;ATSC6pe;ATSC7pe;ATSC8pe;ATSC0are;ATSC1are;ATSC2are;ATSC3are;ATSC4are;ATSC5are;ATSC6are;ATSC7are;ATSC8are;ATSC0p;ATSC1p;ATSC2p;ATSC3p;ATSC4p;ATSC5p;ATSC6p;ATSC7p;ATSC8p;ATSC0i;ATSC1i;ATSC2i;ATSC3i;ATSC4i;ATSC5i;ATSC6i;ATSC7i;ATSC8i;AATSC0c;AATSC1c;AATSC2c;AATSC3c;AATSC0dv;AATSC1dv;AATSC2dv;AATSC3dv;AATSC0d;AATSC1d;AATSC2d;AATSC3d;AATSC0s;AATSC1s;AATSC2s;AATSC3s;AATSC0Z;AATSC1Z;AATSC2Z;AATSC3Z;AATSC0m;AATSC1m;AATSC2m;AATSC3m;AATSC0v;AATSC1v;AATSC2v;AATSC3v;AATSC0se;AATSC1se;AATSC2se;AATSC3se;AATSC0pe;AATSC1pe;AATSC2pe;AATSC3pe;AATSC0are;AATSC1are;AATSC2are;AATSC3are;AATSC0p;AATSC1p;AATSC2p;AATSC3p;AATSC0i;AATSC1i;AATSC2i;AATSC3i;MATS1c;MATS2c;MATS3c;MATS1dv;MATS2dv;MATS3dv;MATS1s;MATS2s;MATS3s;MATS1Z;MATS2Z;MATS3Z;MATS1m;MATS2m;MATS3m;MATS1v;MATS2v;MATS3v;MATS1se;MATS2se;MATS3se;MATS1pe;MATS2pe;MATS3pe;MATS1are;MATS2are;MATS3are;MATS1p;MATS2p;MATS3p;MATS1i;MATS2i;MATS3i;GATS1c;GATS2c;GATS3c;GATS1dv;GATS2dv;GATS3dv;GATS1s;GATS2s;GATS3s;GATS1Z;GATS2Z;GATS3Z;GATS1m;GATS2m;GATS3m;GATS1v;GATS2v;GATS3v;GATS1se;GATS2se;GATS3se;GATS1pe;GATS2pe;GATS3pe;GATS1are;GATS2are;GATS3are;GATS1p;GATS2p;GATS3p;GATS1i;GATS2i;GATS3i;BCUTc-1h;BCUTc-1l;BCUTdv-1h;BCUTdv-1l;BCUTd-1h;BCUTd-1l;BCUTs-1h;BCUTs-1l;BCUTZ-1h;BCUTZ-1l;BCUTm-1h;BCUTm-1l;BCUTv-1h;BCUTv-1l;BCUTse-1h;BCUTse-1l;BCUTpe-1h;BCUTpe-1l;BCUTare-1h;BCUTare-1l;BCUTp-1h;BCUTp-1l;BCUTi-1h;BCUTi-1l;BalabanJ;SpAbs_DzZ;SpMax_DzZ;SpDiam_DzZ;SpAD_DzZ;SpMAD_DzZ;LogEE_DzZ;VE1_DzZ;VE2_DzZ;VE3_DzZ;VR1_DzZ;VR2_DzZ;VR3_DzZ;SpAbs_Dzm;SpMax_Dzm;SpDiam_Dzm;SpAD_Dzm;SpMAD_Dzm;LogEE_Dzm;VE1_Dzm;VE2_Dzm;VE3_Dzm;VR1_Dzm;VR2_Dzm;VR3_Dzm;SpAbs_Dzv;SpMax_Dzv;SpDiam_Dzv;SpAD_Dzv;SpMAD_Dzv;LogEE_Dzv;VE1_Dzv;VE2_Dzv;VE3_Dzv;VR1_Dzv;VR2_Dzv;VR3_Dzv;SpAbs_Dzse;SpMax_Dzse;SpDiam_Dzse;SpAD_Dzse;SpMAD_Dzse;LogEE_Dzse;VE1_Dzse;VE2_Dzse;VE3_Dzse;VR1_Dzse;VR2_Dzse;VR3_Dzse;SpAbs_Dzpe;SpMax_Dzpe;SpDiam_Dzpe;SpAD_Dzpe;SpMAD_Dzpe;LogEE_Dzpe;VE1_Dzpe;VE2_Dzpe;VE3_Dzpe;VR1_Dzpe;VR2_Dzpe;VR3_Dzpe;SpAbs_Dzare;SpMax_Dzare;SpDiam_Dzare;SpAD_Dzare;SpMAD_Dzare;LogEE_Dzare;VE1_Dzare;VE2_Dzare;VE3_Dzare;VR1_Dzare;VR2_Dzare;VR3_Dzare;SpAbs_Dzp;SpMax_Dzp;SpDiam_Dzp;SpAD_Dzp;SpMAD_Dzp;LogEE_Dzp;VE1_Dzp;VE2_Dzp;VE3_Dzp;VR1_Dzp;VR2_Dzp;VR3_Dzp;SpAbs_Dzi;SpMax_Dzi;SpDiam_Dzi;SpAD_Dzi;SpMAD_Dzi;LogEE_Dzi;VE1_Dzi;VE2_Dzi;VE3_Dzi;VR1_Dzi;VR2_Dzi;VR3_Dzi;BertzCT;nBonds;nBondsO;nBondsS;nBondsKS;RNCG;RPCG;C1SP3;C2SP3;C3SP3;C4SP3;Xc-3d;Xc-4d;Xc-5d;Xc-6d;Xc-3dv;Xc-4dv;Xc-5dv;Xc-6dv;Xpc-4d;Xpc-5d;Xpc-6d;Xpc-4dv;Xpc-5dv;Xpc-6dv;Xp-0d;Xp-1d;Xp-2d;Xp-3d;Xp-4d;Xp-5d;Xp-6d;Xp-7d;AXp-0d;AXp-1d;Xp-0dv;Xp-1dv;Xp-2dv;Xp-3dv;Xp-4dv;Xp-5dv;Xp-6dv;Xp-7dv;AXp-0dv;AXp-1dv;SZ;Sm;Sv;Sse;Spe;Sare;Sp;Si;MZ;Mm;Mv;Mse;Mpe;Mare;Mp;Mi;SpAbs_D;SpMax_D;SpDiam_D;SpAD_D;SpMAD_D;LogEE_D;VE1_D;VE2_D;VE3_D;VR1_D;VR2_D;VR3_D;NsCH3;NssCH2;NsssCH;NssssC;SsCH3;SssCH2;SsssCH;SssssC;MAXsCH3;MINsCH3;ECIndex;ETA_alpha;ETA_shape_p;ETA_shape_y;ETA_shape_x;ETA_beta;AETA_beta;ETA_beta_s;AETA_beta_s;ETA_eta;AETA_eta;ETA_eta_L;AETA_eta_L;ETA_eta_R;AETA_eta_R;ETA_eta_RL;AETA_eta_RL;ETA_eta_B;AETA_eta_B;ETA_eta_BR;AETA_eta_BR;ETA_epsilon_1;ETA_epsilon_2;ETA_epsilon_3;ETA_epsilon_4;ETA_epsilon_5;ETA_dBeta;AETA_dBeta;ETA_psi_1;ETA_dPsi_B;fragCpx;IC0;IC1;IC2;IC3;IC4;IC5;TIC0;TIC1;TIC2;TIC3;TIC4;TIC5;SIC0;SIC1;SIC2;SIC3;SIC4;SIC5;BIC0;BIC1;BIC2;BIC3;BIC4;BIC5;CIC0;CIC1;CIC2;CIC3;CIC4;CIC5;MIC0;MIC1;MIC2;MIC3;MIC4;MIC5;ZMIC0;ZMIC1;ZMIC2;ZMIC3;ZMIC4;ZMIC5;Kier1;Lipinski;GhoseFilter;FilterItLogS;VMcGowan;LabuteASA;PEOE_VSA6;PEOE_VSA7;SMR_VSA4;SMR_VSA5;SlogP_VSA4;SlogP_VSA5;EState_VSA3;EState_VSA4;EState_VSA5;EState_VSA7;EState_VSA8;VSA_EState4;VSA_EState5;VSA_EState7;VSA_EState8;MDEC-11;MID;AMID;MID_C;AMID_C;MPC2;MPC3;MPC4;MPC5;MPC6;MPC7;MPC8;MPC9;MPC10;TMPC10;piPC1;piPC2;piPC3;piPC4;piPC5;piPC6;piPC7;piPC8;piPC9;piPC10;TpiPC10;apol;bpol;nRot;RotRatio;SLogP;SMR;GGI1;GGI2;GGI3;GGI4;GGI5;GGI6;GGI7;GGI8;GGI9;GGI10;JGI1;JGI2;JGI3;JGI4;JGI5;JGI6;JGI7;JGI8;JGI9;JGI10;JGT10;Diameter;Radius;TopoShapeIndex;PetitjeanIndex;Vabc;VAdjMat;MWC01;MWC02;MWC03;MWC04;MWC05;MWC06;MWC07;MWC08;MWC09;MWC10;TMWC10;SRW02;SRW04;SRW06;SRW08;SRW10;TSRW10;MW;AMW;WPath;WPol;Zagreb1;Zagreb2;mZagreb1;mZagreb2
140.0;CCC(C)C(CC)CC;3-ethyl-4-methylhexane;OKCRKWVABWILDR-UHFFFAOYSA-N;10.424292428609817;2.1357792050698565;4.271558410139714;10.424292428609817;1.1582547142899797;3.0194010713545536;2.71800224680699;0.30200024964522115;0.8945366267105892;25.608409164767735;2.845378796085304;3.1375602648877017;29.0;9.0;20.0;9.0;34.0;36.0;36.0;26.0;11.0;2.0;0.0;0.0;0.0;54.0;66.0;115.0;134.0;123.0;102.0;63.0;18.0;0.0;46.30555555555556;55.111111111111114;83.58333333333334;107.5;128.0;128.0;75.0;18.0;0.0;344.0;408.0;519.0;592.0;556.0;350.0;123.0;18.0;0.0;1318.6983689999995;1396.2547279999997;1676.830689;1882.7319939999995;1595.224687;799.4007859999997;197.10431999999997;18.289152;0.0;4433.327004362572;5682.86754140501;7720.006773323479;9006.558818156978;9112.847509355212;6761.212447124881;2962.1103624236666;559.5073997567447;0.0;202.2339240000001;202.67676799999998;382.170564;505.52164;568.311676;621.474248;428.05324800000005;120.932352;0.0;155.32250000000002;164.22;299.4225;391.28499999999997;439.09749999999997;468.185;314.15999999999997;87.12;0.0;153.05;160.0;293.85;385.02;432.27;463.5;312.84000000000003;87.12;0.0;33.992358096980006;44.5820862;65.175622872735;78.198667875772;83.19449959577202;70.12312902245;36.037789867299;8.003032287282;0.0;4839.50224529498;4076.805802978;8508.590416560735;11651.804439817573;13108.891944102375;15318.128126482654;11268.2708257915;3328.5177364364813;0.0;1.1724137931034482;1.2857142857142858;0.6666666666666666;0.3611111111111111;1.8620689655172413;2.357142857142857;2.1296296296296298;1.8611111111111112;1.5967432950191571;1.9682539682539684;1.5478395061728396;1.4930555555555556;11.862068965517242;14.571428571428571;9.61111111111111;8.222222222222221;45.47235755172412;49.86624028571428;31.052420166666664;26.149055472222216;152.8733449780197;202.95955505017895;142.96308839487924;125.0910946966247;6.9735835862068996;7.238455999999999;7.077232666666667;7.021133888888889;5.35594827586207;5.865;5.5448611111111115;5.434513888888889;5.277586206896552;5.714285714285714;5.441666666666667;5.3475;1.172150279206207;1.5922173642857143;1.2069559791247224;1.0860926093857222;166.8793877687924;145.6002072492143;157.56648919556918;161.83061721968852;0.04088456091607755;-0.007802032766889408;-0.008480480981956496;0.0071678346364010955;-0.016897448562359932;-0.015184786138173343;0.011194884017124773;0.009559749337814538;0.0;25.17241379310344;9.212841854934599;-3.8382877526753876;-14.979785969084423;-20.61950059453032;-0.3971462544589779;12.556480380499407;5.479191438763378;0.0;9.310344827586206;4.872770511296075;-2.888228299643283;-8.287752675386445;-5.418549346016647;2.3472057074910833;3.6706302021403103;1.048751486325803;0.0;3.6609195402298855;-1.534680935394372;-0.716309948474039;1.1636940150614348;-0.26843043995243765;-1.5856123662306778;0.2969678953626639;0.8139120095124852;0.0;155.17241379310346;-11.890606420927488;-17.390011890606445;4.399524375743145;-95.48156956004757;-59.15576694411414;58.590963139120134;43.34126040428063;0.0;751.4441937931032;-57.5819305588583;-84.21357344233039;21.30531430677778;-462.38290238763364;-286.4701045303211;283.7349628287749;209.8861368870391;0.0;1397.342566174485;-107.07605871068866;-156.59873586438215;39.61814172295457;-859.8207514468293;-532.7033920856754;527.617279296918;390.2922340004598;0.0;0.14720275862068946;-0.011279904875146948;-0.01649686087990356;0.004173564803805823;-0.09057763614744255;-0.056117526753865624;0.05558173127229239;0.04111525326991572;0.0;0.7603448275862053;-0.05826397146254694;-0.08521105826397324;0.021557669441140195;-0.4678596908442334;-0.2898632580261569;0.2870957193816914;0.21237217598097607;0.0;0.5586206896551719;-0.04280618311534082;-0.06260404280618458;0.015838287752674356;-0.3437336504161719;-0.21296076099880923;0.21092746730083495;0.15602853745541123;0.0;6.246771423200688;-0.4786798025441109;-0.7000692112207643;0.17711152694132357;-3.8437988144292348;-2.38143201765697;2.3586947270361174;1.7447878802732941;0.0;33.932561514511;-2.6001962846370503;-3.8027870662815544;0.9620726253155409;-20.87957616563407;-12.935976516068225;12.812467192548398;9.477715457501462;0.0;0.0014098124453819844;-0.0002786440273889074;-0.00015704594411030548;9.95532588389041e-05;0.8680142687277048;0.32903006624766423;-0.07107940282732199;-0.20805258290395032;0.3210463733650416;0.1740275182605741;-0.053485709252653384;-0.11510767604703395;0.1262386048355133;-0.054810033406941856;-0.013264999045815537;0.01616241687585326;5.35077288941736;-0.4246645150331246;-0.32203725723345267;0.061104505218654785;25.911868751486317;-2.0564975199592253;-1.5595106193024146;0.2959071431496914;48.184226419809825;-3.8241449539531662;-2.8999765900811507;0.550251968374369;0.005075957193816878;-0.00040285374554096246;-0.00030549742370191774;5.7966177830636434e-05;0.026218787158145008;-0.002080856123662391;-0.0015779825604439488;0.0002994120755713916;0.01926278240190248;-0.001528792254119315;-0.0011593341260404551;0.00021997621878714385;0.2154059111448513;-0.017095707233718248;-0.012964244652236376;0.002459882318629494;1.1700883280865861;-0.09286415302275179;-0.07042198270891767;0.01336211979604918;-0.19764616797194584;-0.11139491967511632;0.07061454107956215;0.3790606653620352;-0.08188736681887371;-0.23968797564687983;-0.4341780668311281;-0.10507878365021223;0.12803069945927087;-0.0793650793650795;-0.06018518518518526;0.011419753086419704;-0.07936507936507912;-0.060185185185185085;0.011419753086419829;-0.07936507936507947;-0.06018518518518526;0.0114197530864197;-0.07936507936506763;-0.060185185185180456;0.011419753086422037;-0.07936507936508275;-0.06018518518518656;0.011419753086419087;-0.07936507936508304;-0.060185185185186646;0.01141975308641902;-0.07936507936507886;-0.06018518518518498;0.011419753086419841;-0.07936507936508522;-0.060185185185187534;0.011419753086418606;1.7313288334974086;1.1717770305330761;0.9209730681146704;1.271232876712329;1.792085235920853;1.7302891933028925;2.0486656200941913;0.9442409442409442;0.6816239316239314;1.6111111111111112;1.2530864197530864;1.0651234567901235;1.6111111111111116;1.2530864197530869;1.065123456790124;1.6111111111111116;1.2530864197530869;1.065123456790124;1.6111111111111116;1.2530864197530867;1.0651234567901238;1.6111111111111112;1.2530864197530864;1.0651234567901238;1.6111111111111107;1.2530864197530862;1.0651234567901233;1.6111111111111112;1.2530864197530867;1.0651234567901235;1.611111111111111;1.2530864197530867;1.0651234567901235;0.21931734816732862;-0.22282639422707304;3.1167705459320563;0.987136688796232;3.1167705459320563;0.987136688796232;2.0297863758028716;1.1777912957801748;6.223628599983691;5.7819967988122745;12.234628599983694;11.792996798812272;20.80315487609924;20.361523074927774;2.969628599983695;2.5279967988122776;2.773628599983699;2.3319967988122756;2.723628599983695;2.2819967988122727;1.893628599983694;1.4519967988122753;11.483928599983656;11.042296798812279;3.4994803314469776;43.505373719153084;21.75268685957654;30.408611067933244;43.50537371915308;4.833930413239231;21.752686860750465;2.945770299685337;0.32730781107614854;0.9750098291069766;27.43887872968998;3.0487643032988867;3.206600423744331;43.505373719153084;21.75268685957654;30.408611067933244;43.50537371915308;4.833930413239231;21.752686860750465;2.945770299685337;0.32730781107614854;0.9750098291069766;27.43887872968998;3.0487643032988867;3.206600423744331;43.505373719153084;21.75268685957654;30.408611067933244;43.50537371915308;4.833930413239231;21.752686860750465;2.945770299685337;0.32730781107614854;0.9750098291069766;27.43887872968998;3.0487643032988867;3.206600423744331;43.505373719153084;21.75268685957654;30.408611067933244;43.50537371915308;4.833930413239231;21.752686860750465;2.945770299685337;0.32730781107614854;0.9750098291069766;27.43887872968998;3.0487643032988867;3.206600423744331;43.505373719153084;21.75268685957654;30.408611067933244;43.50537371915308;4.833930413239231;21.752686860750465;2.945770299685337;0.32730781107614854;0.9750098291069766;27.43887872968998;3.0487643032988867;3.206600423744331;43.505373719153084;21.75268685957654;30.408611067933244;43.50537371915308;4.833930413239231;21.752686860750465;2.945770299685337;0.32730781107614854;0.9750098291069766;27.43887872968998;3.0487643032988867;3.206600423744331;43.505373719153084;21.75268685957654;30.408611067933244;43.50537371915308;4.833930413239231;21.752686860750465;2.945770299685337;0.32730781107614854;0.9750098291069766;27.43887872968998;3.0487643032988867;3.206600423744331;43.505373719153084;21.75268685957654;30.408611067933244;43.50537371915308;4.833930413239231;21.752686860750465;2.945770299685337;0.32730781107614854;0.9750098291069766;27.43887872968998;3.0487643032988867;3.206600423744331;53.058650025961626;28.0;8.0;28.0;28.0;0.13072304972535628;0.061271776740202705;4.0;3.0;2.0;0.0;0.4023689270621825;0.0;0.11785113019775792;0.0;0.4023689270621825;0.0;0.11785113019775792;0.0;1.186886723926607;1.5202200572599407;1.2071067811865477;1.186886723926607;1.5202200572599407;1.2071067811865477;7.276020881938894;4.256748817474191;2.9621084109701457;2.4974431949644016;1.4267463220525112;0.3333333333333333;0.0;0.0;0.8084467646598772;0.5320936021842739;7.276020881938894;4.256748817474191;2.9621084109701457;2.4974431949644016;1.4267463220525112;0.3333333333333333;0.0;0.0;0.8084467646598772;0.5320936021842739;12.33333333333333;10.678461410373828;14.418278037858745;27.87836853605244;26.254901960784316;26.599999999999998;16.985544910179645;33.15289645924176;0.425287356321839;0.3682228072542699;0.49718200130547396;0.9613230529673256;0.9053414469235971;0.9172413793103448;0.5857084451786084;1.1432033261807504;43.505373719153084;21.75268685957654;30.408611067933244;43.50537371915308;4.833930413239231;21.752686860750465;2.945770299685337;0.32730781107614854;0.9750098291069766;27.43887872968998;3.0487643032988867;3.206600423744331;4.0;3.0;2.0;0.0;9.22351851851852;4.045;1.898148148148148;0.0;2.3587962962962963;2.280740740740741;61.0;4.5;0.4444444444444444;0.2222222222222222;0.0;4.0;0.4444444444444444;4.0;0.4444444444444444;10.671307940767415;1.1857008823074906;4.2567488174741905;0.4729720908304656;10.671307940767415;1.1857008823074906;4.2567488174741905;0.4729720908304656;0.15746474489890439;0.01749608276654493;0.15746474489890439;0.01749608276654493;0.4241379310344827;0.7;0.4241379310344827;0.4241379310344827;0.7;-4.0;-0.4444444444444444;0.7142857142857143;0.00028571428571433355;8.0;0.8935711016541907;1.3685517054754786;2.442839615220408;2.9425025461056866;3.227490908398459;3.512479270691232;25.91356194797153;39.68799945878888;70.84234884139184;85.33257383706491;93.59723634355531;101.86189885004573;0.18393878085369605;0.28171203363045266;0.5028507970019875;0.6057048286226191;0.6643687802886731;0.7230327319547271;0.18587583320595183;0.28467873241398256;0.5081462997483124;0.6120834832902792;0.6713652228150976;0.730646962339916;3.9644098934733814;3.4894292896520933;2.4151413799071637;1.9154784490218852;1.6304900867291128;1.3455017244363399;6.664965218283638;12.369957250781123;15.442907491862472;16.99181004296396;18.324320628924198;18.611588898115315;35.68332320783173;26.142133731356516;24.879479595926014;22.195186765211027;19.58578625692831;18.70831373140357;9.0;1.0;0.0;-2.7006147003950467;137.67000000000004;59.6587879430024;46.95741366754052;11.835812092322787;11.835812092322787;46.95741366754052;11.835812092322787;46.95741366754052;0.0;11.835812092322787;19.26246486877803;0.0;27.694948798762496;0.0;1.898148148148148;4.045;9.22351851851852;1.460868229065865;16.492266381810012;1.8324740424233346;16.492266381810012;1.8324740424233346;9.0;10.0;7.0;2.0;0.0;0.0;0.0;0.0;0.0;45.0;2.1972245773362196;2.302585092994046;2.3978952727983707;2.0794415416798357;1.0986122886681098;0.0;0.0;0.0;0.0;0.0;3.828641396489095;28.365859999999998;20.06414;4.0;0.5;3.468700000000003;43.52700000000001;2.0;1.333333333333334;0.625;0.16000000000000003;0.0;0.0;0.0;0.0;0.0;0.0;0.25;0.14814814814814822;0.06250000000000001;0.02285714285714286;0.0;0.0;0.0;0.0;0.0;0.0;0.48350529100529105;5.0;3.0;0.6666666666666666;0.4;164.22032596245742;4.0;8.0;3.5553480614894135;4.290459441148391;5.043425116919247;5.796057750765372;6.555356891810665;7.311218384419629;8.071843149609158;8.82834762005316;9.589256144850811;76.04131256106584;2.833213344056216;3.970291913552122;5.342334251964811;6.803505257608338;8.298290634359283;36.24763540154077;128.15650064;4.419189677241379;94.0;10.0;34.0;36.0;4.972222222222222;2.4444444444444446