boiling_point;SMILES;IUPAC_name;InChIKey;SpAbs_A;SpMax_A;SpDiam_A;SpAD_A;SpMAD_A;LogEE_A;VE1_A;VE2_A;VE3_A;VR1_A;VR2_A;VR3_A;nAtom;nHeavyAtom;nH;nC;ATS0dv;ATS1dv;ATS2dv;ATS3dv;ATS4dv;ATS5dv;ATS6dv;ATS7dv;ATS8dv;ATS0d;ATS1d;ATS2d;ATS3d;ATS4d;ATS5d;ATS6d;ATS7d;ATS8d;ATS0s;ATS1s;ATS2s;ATS3s;ATS4s;ATS5s;ATS6s;ATS7s;ATS8s;ATS0Z;ATS1Z;ATS2Z;ATS3Z;ATS4Z;ATS5Z;ATS6Z;ATS7Z;ATS8Z;ATS0m;ATS1m;ATS2m;ATS3m;ATS4m;ATS5m;ATS6m;ATS7m;ATS8m;ATS0v;ATS1v;ATS2v;ATS3v;ATS4v;ATS5v;ATS6v;ATS7v;ATS8v;ATS0se;ATS1se;ATS2se;ATS3se;ATS4se;ATS5se;ATS6se;ATS7se;ATS8se;ATS0pe;ATS1pe;ATS2pe;ATS3pe;ATS4pe;ATS5pe;ATS6pe;ATS7pe;ATS8pe;ATS0are;ATS1are;ATS2are;ATS3are;ATS4are;ATS5are;ATS6are;ATS7are;ATS8are;ATS0p;ATS1p;ATS2p;ATS3p;ATS4p;ATS5p;ATS6p;ATS7p;ATS8p;ATS0i;ATS1i;ATS2i;ATS3i;ATS4i;ATS5i;ATS6i;ATS7i;ATS8i;AATS0dv;AATS1dv;AATS2dv;AATS3dv;AATS0d;AATS1d;AATS2d;AATS3d;AATS0s;AATS1s;AATS2s;AATS3s;AATS0Z;AATS1Z;AATS2Z;AATS3Z;AATS0m;AATS1m;AATS2m;AATS3m;AATS0v;AATS1v;AATS2v;AATS3v;AATS0se;AATS1se;AATS2se;AATS3se;AATS0pe;AATS1pe;AATS2pe;AATS3pe;AATS0are;AATS1are;AATS2are;AATS3are;AATS0p;AATS1p;AATS2p;AATS3p;AATS0i;AATS1i;AATS2i;AATS3i;ATSC0c;ATSC1c;ATSC2c;ATSC3c;ATSC4c;ATSC5c;ATSC6c;ATSC7c;ATSC8c;ATSC0dv;ATSC1dv;ATSC2dv;ATSC3dv;ATSC4dv;ATSC5dv;ATSC6dv;ATSC7dv;ATSC8dv;ATSC0d;ATSC1d;ATSC2d;ATSC3d;ATSC4d;ATSC5d;ATSC6d;ATSC7d;ATSC8d;ATSC0s;ATSC1s;ATSC2s;ATSC3s;ATSC4s;ATSC5s;ATSC6s;ATSC7s;ATSC8s;ATSC0Z;ATSC1Z;ATSC2Z;ATSC3Z;ATSC4Z;ATSC5Z;ATSC6Z;ATSC7Z;ATSC8Z;ATSC0m;ATSC1m;ATSC2m;ATSC3m;ATSC4m;ATSC5m;ATSC6m;ATSC7m;ATSC8m;ATSC0v;ATSC1v;ATSC2v;ATSC3v;ATSC4v;ATSC5v;ATSC6v;ATSC7v;ATSC8v;ATSC0se;ATSC1se;ATSC2se;ATSC3se;ATSC4se;ATSC5se;ATSC6se;ATSC7se;ATSC8se;ATSC0pe;ATSC1pe;ATSC2pe;ATSC3pe;ATSC4pe;ATSC5pe;ATSC6pe;ATSC7pe;ATSC8pe;ATSC0are;ATSC1are;ATSC2are;ATSC3are;ATSC4are;ATSC5are;ATSC6are;ATSC7are;ATSC8are;ATSC0p;ATSC1p;ATSC2p;ATSC3p;ATSC4p;ATSC5p;ATSC6p;ATSC7p;ATSC8p;ATSC0i;ATSC1i;ATSC2i;ATSC3i;ATSC4i;ATSC5i;ATSC6i;ATSC7i;ATSC8i;AATSC0c;AATSC1c;AATSC2c;AATSC3c;AATSC0dv;AATSC1dv;AATSC2dv;AATSC3dv;AATSC0d;AATSC1d;AATSC2d;AATSC3d;AATSC0s;AATSC1s;AATSC2s;AATSC3s;AATSC0Z;AATSC1Z;AATSC2Z;AATSC3Z;AATSC0m;AATSC1m;AATSC2m;AATSC3m;AATSC0v;AATSC1v;AATSC2v;AATSC3v;AATSC0se;AATSC1se;AATSC2se;AATSC3se;AATSC0pe;AATSC1pe;AATSC2pe;AATSC3pe;AATSC0are;AATSC1are;AATSC2are;AATSC3are;AATSC0p;AATSC1p;AATSC2p;AATSC3p;AATSC0i;AATSC1i;AATSC2i;AATSC3i;MATS1c;MATS2c;MATS3c;MATS1dv;MATS2dv;MATS3dv;MATS1s;MATS2s;MATS3s;MATS1Z;MATS2Z;MATS3Z;MATS1m;MATS2m;MATS3m;MATS1v;MATS2v;MATS3v;MATS1se;MATS2se;MATS3se;MATS1pe;MATS2pe;MATS3pe;MATS1are;MATS2are;MATS3are;MATS1p;MATS2p;MATS3p;MATS1i;MATS2i;MATS3i;GATS1c;GATS2c;GATS3c;GATS1dv;GATS2dv;GATS3dv;GATS1s;GATS2s;GATS3s;GATS1Z;GATS2Z;GATS3Z;GATS1m;GATS2m;GATS3m;GATS1v;GATS2v;GATS3v;GATS1se;GATS2se;GATS3se;GATS1pe;GATS2pe;GATS3pe;GATS1are;GATS2are;GATS3are;GATS1p;GATS2p;GATS3p;GATS1i;GATS2i;GATS3i;BCUTc-1h;BCUTc-1l;BCUTdv-1h;BCUTdv-1l;BCUTd-1h;BCUTd-1l;BCUTs-1h;BCUTs-1l;BCUTZ-1h;BCUTZ-1l;BCUTm-1h;BCUTm-1l;BCUTv-1h;BCUTv-1l;BCUTse-1h;BCUTse-1l;BCUTpe-1h;BCUTpe-1l;BCUTare-1h;BCUTare-1l;BCUTp-1h;BCUTp-1l;BCUTi-1h;BCUTi-1l;BalabanJ;SpAbs_DzZ;SpMax_DzZ;SpDiam_DzZ;SpAD_DzZ;SpMAD_DzZ;LogEE_DzZ;VE1_DzZ;VE2_DzZ;VE3_DzZ;VR1_DzZ;VR2_DzZ;VR3_DzZ;SpAbs_Dzm;SpMax_Dzm;SpDiam_Dzm;SpAD_Dzm;SpMAD_Dzm;LogEE_Dzm;VE1_Dzm;VE2_Dzm;VE3_Dzm;VR1_Dzm;VR2_Dzm;VR3_Dzm;SpAbs_Dzv;SpMax_Dzv;SpDiam_Dzv;SpAD_Dzv;SpMAD_Dzv;LogEE_Dzv;VE1_Dzv;VE2_Dzv;VE3_Dzv;VR1_Dzv;VR2_Dzv;VR3_Dzv;SpAbs_Dzse;SpMax_Dzse;SpDiam_Dzse;SpAD_Dzse;SpMAD_Dzse;LogEE_Dzse;VE1_Dzse;VE2_Dzse;VE3_Dzse;VR1_Dzse;VR2_Dzse;VR3_Dzse;SpAbs_Dzpe;SpMax_Dzpe;SpDiam_Dzpe;SpAD_Dzpe;SpMAD_Dzpe;LogEE_Dzpe;VE1_Dzpe;VE2_Dzpe;VE3_Dzpe;VR1_Dzpe;VR2_Dzpe;VR3_Dzpe;SpAbs_Dzare;SpMax_Dzare;SpDiam_Dzare;SpAD_Dzare;SpMAD_Dzare;LogEE_Dzare;VE1_Dzare;VE2_Dzare;VE3_Dzare;VR1_Dzare;VR2_Dzare;VR3_Dzare;SpAbs_Dzp;SpMax_Dzp;SpDiam_Dzp;SpAD_Dzp;SpMAD_Dzp;LogEE_Dzp;VE1_Dzp;VE2_Dzp;VE3_Dzp;VR1_Dzp;VR2_Dzp;VR3_Dzp;SpAbs_Dzi;SpMax_Dzi;SpDiam_Dzi;SpAD_Dzi;SpMAD_Dzi;LogEE_Dzi;VE1_Dzi;VE2_Dzi;VE3_Dzi;VR1_Dzi;VR2_Dzi;VR3_Dzi;BertzCT;nBonds;nBondsO;nBondsS;nBondsKS;RNCG;RPCG;C1SP3;C2SP3;C3SP3;C4SP3;Xc-3d;Xc-4d;Xc-5d;Xc-6d;Xc-3dv;Xc-4dv;Xc-5dv;Xc-6dv;Xpc-4d;Xpc-5d;Xpc-6d;Xpc-4dv;Xpc-5dv;Xpc-6dv;Xp-0d;Xp-1d;Xp-2d;Xp-3d;Xp-4d;Xp-5d;Xp-6d;Xp-7d;AXp-0d;AXp-1d;Xp-0dv;Xp-1dv;Xp-2dv;Xp-3dv;Xp-4dv;Xp-5dv;Xp-6dv;Xp-7dv;AXp-0dv;AXp-1dv;SZ;Sm;Sv;Sse;Spe;Sare;Sp;Si;MZ;Mm;Mv;Mse;Mpe;Mare;Mp;Mi;SpAbs_D;SpMax_D;SpDiam_D;SpAD_D;SpMAD_D;LogEE_D;VE1_D;VE2_D;VE3_D;VR1_D;VR2_D;VR3_D;NsCH3;NssCH2;NsssCH;NssssC;SsCH3;SssCH2;SsssCH;SssssC;MAXsCH3;MINsCH3;ECIndex;ETA_alpha;ETA_shape_p;ETA_shape_y;ETA_shape_x;ETA_beta;AETA_beta;ETA_beta_s;AETA_beta_s;ETA_eta;AETA_eta;ETA_eta_L;AETA_eta_L;ETA_eta_R;AETA_eta_R;ETA_eta_RL;AETA_eta_RL;ETA_eta_B;AETA_eta_B;ETA_eta_BR;AETA_eta_BR;ETA_epsilon_1;ETA_epsilon_2;ETA_epsilon_3;ETA_epsilon_4;ETA_epsilon_5;ETA_dBeta;AETA_dBeta;ETA_psi_1;ETA_dPsi_B;fragCpx;IC0;IC1;IC2;IC3;IC4;IC5;TIC0;TIC1;TIC2;TIC3;TIC4;TIC5;SIC0;SIC1;SIC2;SIC3;SIC4;SIC5;BIC0;BIC1;BIC2;BIC3;BIC4;BIC5;CIC0;CIC1;CIC2;CIC3;CIC4;CIC5;MIC0;MIC1;MIC2;MIC3;MIC4;MIC5;ZMIC0;ZMIC1;ZMIC2;ZMIC3;ZMIC4;ZMIC5;Kier1;Lipinski;GhoseFilter;FilterItLogS;VMcGowan;LabuteASA;PEOE_VSA6;PEOE_VSA7;SMR_VSA4;SMR_VSA5;SlogP_VSA4;SlogP_VSA5;EState_VSA3;EState_VSA4;EState_VSA5;EState_VSA7;EState_VSA8;VSA_EState4;VSA_EState5;VSA_EState7;VSA_EState8;MDEC-11;MID;AMID;MID_C;AMID_C;MPC2;MPC3;MPC4;MPC5;MPC6;MPC7;MPC8;MPC9;MPC10;TMPC10;piPC1;piPC2;piPC3;piPC4;piPC5;piPC6;piPC7;piPC8;piPC9;piPC10;TpiPC10;apol;bpol;nRot;RotRatio;SLogP;SMR;GGI1;GGI2;GGI3;GGI4;GGI5;GGI6;GGI7;GGI8;GGI9;GGI10;JGI1;JGI2;JGI3;JGI4;JGI5;JGI6;JGI7;JGI8;JGI9;JGI10;JGT10;Diameter;Radius;TopoShapeIndex;PetitjeanIndex;Vabc;VAdjMat;MWC01;MWC02;MWC03;MWC04;MWC05;MWC06;MWC07;MWC08;MWC09;MWC10;TMWC10;SRW02;SRW04;SRW06;SRW08;SRW10;TSRW10;MW;AMW;WPath;WPol;Zagreb1;Zagreb2;mZagreb1;mZagreb2
420.0;CC(C)CCCC(C)CCCC(C)CCCCC(C)CCCC(C)CCCC(C)C;2,6,10,15,19,23-hexamethyltetracosane;PRAKJMSDJKAYCZ-UHFFFAOYSA-N;34.850399815675345;2.1139200353740684;4.227840070748138;34.850399815675345;1.1616799938558449;4.236457568516046;4.99146931412022;0.166382310470674;2.706342606816634;202.79486720544918;6.759828906848306;6.410807250427019;92.0;30.0;62.0;30.0;126.0;128.0;126.0;120.0;120.0;119.0;108.0;97.0;94.0;188.0;234.0;414.0;476.0;518.0;479.0;486.0;440.0;456.0;140.66666666666669;170.08333333333331;282.16666666666663;391.91666666666663;421.7777777777777;389.94444444444446;379.99999999999994;394.0833333333333;387.88888888888886;1142.0;1416.0;1900.0;2056.0;1986.0;1904.0;1940.0;1871.0;1668.0;4390.919598000002;4934.298964999998;6228.974002;6280.807878999999;6005.826317999999;5790.780436999999;6078.287743999999;5542.3855459999995;4928.410392;14632.699207197566;19395.66036570272;27805.005771989396;32156.99298876473;31824.882379804778;30258.576635092908;30152.287943894677;30027.521458293555;27405.024341225042;642.760248;659.968148;1279.585096;1835.6845720000001;2130.8067119999996;1946.98946;1884.199424;1830.775976;1997.757024;495.15500000000003;536.3925;1009.345;1424.1174999999998;1627.935;1492.5124999999998;1444.6999999999998;1414.2649999999999;1516.98;487.58000000000004;522.25;989.1;1400.67;1606.5;1471.77;1424.52;1392.3000000000002;1499.04;111.23300010063801;149.91784721999997;230.64281305395997;283.705127646712;290.66551878735004;273.640957640672;268.645125920672;270.645829360655;256.55599863644403;15268.725108203442;13170.634284809803;27938.704245597364;41946.78019215572;50834.91949816276;46027.44660668768;44570.35910240288;42300.986880449665;48427.45341493605;1.3695652173913044;1.4065934065934067;0.7;0.45977011494252873;2.0434782608695654;2.5714285714285716;2.3;1.8237547892720307;1.528985507246377;1.8690476190476188;1.5675925925925924;1.5015964240102169;12.41304347826087;15.56043956043956;10.555555555555555;7.8773946360153255;47.727386934782636;54.22306554945053;34.60541112222222;24.064398003831414;159.05107833910398;213.1391248978321;154.47225428883;123.20686968875376;6.986524434782609;7.2523972307692315;7.108806088888889;7.033274222222222;5.382119565217391;5.894423076923077;5.607472222222222;5.456388888888888;5.2997826086956525;5.739010989010989;5.495;5.366551724137931;1.2090543489199783;1.6474488705494503;1.2813489614108886;1.0869928262326132;165.9644033500374;144.7322448880198;155.21502358665202;160.71563292013684;0.12765749883895647;-0.012104800289537612;-0.020790360133578194;-0.04415093189104892;0.009154017187602743;-0.004613311446765957;0.0349440239386169;-0.05210096956915104;0.01736751700744518;89.43478260869564;17.90689981096407;-40.76370510396977;-22.135633270321364;10.879962192816638;6.714083175803399;-15.428166351606805;-18.657372400756145;19.33459357277883;31.478260869565222;5.342155009451795;-15.413988657844993;-3.432892249527411;5.561436672967865;-1.1134215500945182;-9.425330812854442;-0.30245746691871433;6.850661625708886;9.144927536231883;-3.520163831127914;1.4483301827347206;-3.766225582860743;0.7522579290065114;-1.5276727578239873;5.552930056710775;-5.186515437933206;0.9134635580760343;505.4347826086958;-11.353969754253358;-89.9810964083176;-194.22258979206055;47.14083175803404;-0.7206994328922498;99.26748582230627;-221.39650283553874;93.85633270321361;2447.638877608696;-54.983192178166405;-435.7460891039698;-940.5501521507563;228.28609447542547;-3.490088161153153;480.71673327882786;-1072.1436401942344;454.51246479017004;4551.489010836455;-102.24359372169137;-810.2884597131974;-1748.9931708541517;424.50774084239106;-6.489967967765864;893.9132928716207;-1993.6968811141755;845.1853366546259;0.47947565217391264;-0.010770829867676662;-0.08535966729678798;-0.18424731758034107;0.04471967863894176;-0.0006836843100188408;0.09416910775047255;-0.21002557844990588;0.08903587145557743;2.476630434782603;-0.05563445179581887;-0.4409073724007345;-0.9516906899810822;0.2309900756143613;-0.003531427221172695;0.4864106805292988;-1.0848428638941299;0.4598960302457341;1.8195652173913013;-0.04087429111529252;-0.3239319470699249;-0.6992013232514063;0.16970699432891798;-0.0025945179584126593;0.35736294896030135;-0.7970274102079317;0.3378827977315585;20.347273584990646;-0.45707643560486994;-3.6223664241068025;-7.818813241319812;1.8977471155706591;-0.029013176453586975;3.9962083370989134;-8.912752681373068;3.7783717007752644;110.52671304907751;-2.482846452550822;-19.676751907006487;-42.47191762070507;10.308592451281216;-0.15760003496949082;21.70746711169583;-48.41421402119329;20.52417504585907;0.001387581509119092;-0.0001330197834015122;-0.00011550200074210108;-0.00016916065858639434;0.9721172022684309;0.19677911880180296;-0.22646502835538762;-0.0848108554418443;0.3421550094517959;0.058705000103865874;-0.08563327032136107;-0.013152843867921114;0.09940138626339003;-0.03868311902338367;0.00804627879297067;-0.014429983076094801;5.493856332703215;-0.12476889839838855;-0.49989498004620886;-0.7441478536094274;26.604770408790174;-0.6042109030567737;-2.4208116061331655;-3.603640429696384;49.472706639526685;-1.1235559749636415;-4.501602553962208;-6.701123259977592;0.005211691871455572;-0.00011836076777666662;-0.00047422037387104434;-0.0007059284198480501;0.026919896030245683;-0.0006113676021518558;-0.002449485402226303;-0.0036463244826861387;0.019777882797731537;-0.0004491680342339837;-0.0017996219281662495;-0.0026789322729938937;0.22116601722815918;-0.005022817973679889;-0.020124257911704458;-0.029957138855631463;1.2013773157508425;-0.027284026951107935;-0.10931528837225826;-0.16272765371917652;-0.09586448257440386;-0.08323979527186672;-0.12191043010784008;0.20242324520399374;-0.23296062226543524;-0.08724344682301534;-0.38916076000069666;0.08094734988554331;-0.14516883132654487;-0.022710622710622803;-0.0909916367980884;-0.13545091253656324;-0.02271062271062273;-0.0909916367980884;-0.13545091253656327;-0.02271062271062335;-0.09099163679808878;-0.1354509125365635;-0.022710622710626533;-0.09099163679809018;-0.13545091253656397;-0.022710622710613644;-0.09099163679808417;-0.13545091253656155;-0.022710622710611975;-0.0909916367980834;-0.13545091253656125;-0.022710622710623088;-0.09099163679808857;-0.13545091253656338;-0.022710622710614303;-0.09099163679808443;-0.1354509125365616;1.6079154449108712;1.2393449727837933;1.2224257774041047;1.3864851725814293;1.8145438340625508;1.134455378047486;1.9956418383518228;0.8200255326642016;1.2009672659708184;1.5333333333333328;1.3253166069295097;1.2244304371111931;1.5333333333333332;1.3253166069295104;1.2244304371111936;1.5333333333333343;1.3253166069295113;1.2244304371111943;1.533333333333333;1.32531660692951;1.2244304371111934;1.5333333333333337;1.3253166069295106;1.224430437111194;1.533333333333334;1.325316606929511;1.224430437111194;1.5333333333333337;1.3253166069295106;1.224430437111194;1.5333333333333332;1.3253166069295101;1.2244304371111934;0.23702333481315477;-0.21640973292175933;3.032781630227889;0.9871313910125116;3.032781630227889;0.9871313910125116;2.0416084484714325;1.224632617547598;6.2394353213718245;5.786467118560231;12.250435321371796;11.797467118560247;20.818961597487416;20.36599339467574;2.9854353213718188;2.5324671185602425;2.7894353213718155;2.336467118560237;2.7394353213718117;2.286467118560236;1.9094353213718178;1.4564671185602387;11.49973532137181;11.046767118560227;3.5365620101598387;526.933042288776;263.46652114438797;412.6899628775587;526.933042288776;17.5644347429592;263.46652114438797;5.387839078755686;0.17959463595852287;2.7827566801695593;169.8462569349704;5.661541897832347;6.233505945557457;526.933042288776;263.46652114438797;412.6899628775587;526.933042288776;17.5644347429592;263.46652114438797;5.387839078755686;0.17959463595852287;2.7827566801695593;169.8462569349704;5.661541897832347;6.233505945557457;526.933042288776;263.46652114438797;412.6899628775587;526.933042288776;17.5644347429592;263.46652114438797;5.387839078755686;0.17959463595852287;2.7827566801695593;169.8462569349704;5.661541897832347;6.233505945557457;526.933042288776;263.46652114438797;412.6899628775587;526.933042288776;17.5644347429592;263.46652114438797;5.387839078755686;0.17959463595852287;2.7827566801695593;169.8462569349704;5.661541897832347;6.233505945557457;526.933042288776;263.46652114438797;412.6899628775587;526.933042288776;17.5644347429592;263.46652114438797;5.387839078755686;0.17959463595852287;2.7827566801695593;169.8462569349704;5.661541897832347;6.233505945557457;526.933042288776;263.46652114438797;412.6899628775587;526.933042288776;17.5644347429592;263.46652114438797;5.387839078755686;0.17959463595852287;2.7827566801695593;169.8462569349704;5.661541897832347;6.233505945557457;526.933042288776;263.46652114438797;412.6899628775587;526.933042288776;17.5644347429592;263.46652114438797;5.387839078755686;0.17959463595852287;2.7827566801695593;169.8462569349704;5.661541897832347;6.233505945557457;526.933042288776;263.46652114438797;412.6899628775587;526.933042288776;17.5644347429592;263.46652114438797;5.387839078755686;0.17959463595852287;2.7827566801695593;169.8462569349704;5.661541897832347;6.233505945557457;307.9474732050231;91.0;29.0;91.0;91.0;0.03929796930162826;0.01877128319490939;8.0;16.0;6.0;0.0;1.9711971193069773;0.0;0.0;0.0;1.9711971193069773;0.0;0.0;0.0;2.210343431045078;2.1402990980327408;1.7563229865551733;2.210343431045078;2.1402990980327408;1.7563229865551733;22.777810114122516;14.201285058155639;12.216452251832633;7.388336229312524;4.941620205737902;3.071140496065383;2.5627084674008898;1.3163177236047554;0.7592603371374173;0.48969948476398756;22.777810114122516;14.201285058155639;12.216452251832633;7.388336229312524;4.941620205737902;3.071140496065383;2.5627084674008898;1.3163177236047554;0.7592603371374173;0.48969948476398756;40.333333333333336;35.203230372158856;46.79666191736213;88.52294246176257;83.49019607843138;84.56;54.755189221556876;104.87397902364947;0.4384057971014493;0.382643808393031;0.5086593686669797;0.9622058963235062;0.9075021312872976;0.9191304347826087;0.5951651002343139;1.1399345546048856;526.933042288776;263.46652114438797;412.6899628775587;526.933042288776;17.5644347429592;263.46652114438797;5.387839078755686;0.17959463595852287;2.7827566801695593;169.8462569349704;5.661541897832347;6.233505945557457;8.0;16.0;6.0;0.0;19.331932973438477;23.153910178135977;5.514156848425547;0.0;2.493586482022005;2.350674090322104;1016.0;15.0;0.26666666666666666;0.2;0.0;14.5;0.48333333333333334;14.5;0.48333333333333334;53.07318392359158;1.769106130786386;14.201285058155637;0.4733761686051879;53.07318392359158;1.769106130786386;14.201285058155637;0.4733761686051879;0.7129285042174587;0.02376428347391529;0.7129285042174587;0.02376428347391529;0.43043478260869567;0.7;0.43043478260869567;0.43043478260869567;0.7;-14.5;-0.48333333333333334;0.7142857142857143;0.00028571428571433355;29.0;0.9108783787500366;1.3858451490101305;2.520540967200108;3.137722696016699;3.78933505364794;4.120750542731344;83.80081084500337;127.497753708932;231.88976898240995;288.6704880335363;348.6188249356105;379.1090499312836;0.1396289917817523;0.21243688008870637;0.3863749565311984;0.48098304532899827;0.5808690220424149;0.631671864311076;0.139967289859384;0.21295157970255463;0.3873110794908474;0.48214838812444427;0.5822763721278463;0.63320230132608;5.612683577306976;5.137716807046883;4.003020988856905;3.385839260040314;2.734226902409073;2.4028114133256695;6.71867681198051;12.423502689574494;16.05260489734851;19.153874108833303;21.06530746997115;22.5367227000608;118.68116183019436;89.87628239063065;81.63199276711953;65.24683080998595;53.326064545207714;45.8881128930818;30.0;0.0;0.0;-9.646399813943333;433.56000000000006;193.32257234533122;158.1230435643412;35.507436276968356;35.507436276968356;158.1230435643412;35.507436276968356;158.1230435643412;0.0;35.507436276968356;102.7331459668162;0.0;55.38989759752498;0.0;5.514156848425547;23.153910178135977;19.331932973438477;2.6561760389399147;57.775708652916954;1.9258569550972318;57.775708652916954;1.9258569550972318;34.0;31.0;30.0;29.0;32.0;26.0;24.0;23.0;24.0;312.0;3.4011973816621555;3.5553480614894135;3.4657359027997265;3.4339872044851463;3.4011973816621555;3.4965075614664802;3.295836866004329;3.2188758248682006;3.1780538303479458;3.2188758248682006;5.746203190540153;91.441166;62.198834;21.0;0.7241379310344828;11.08439999999999;140.20399999999998;6.5;2.4444444444444455;1.375;0.5600000000000002;0.7777777777777778;0.40816326530612246;0.28125;0.17283950617283944;0.18000000000000005;0.1487603305785124;0.22413793103448276;0.07189542483660133;0.04435483870967741;0.018666666666666665;0.026819923371647503;0.012755102040816327;0.010817307692307692;0.007201646090534977;0.00782608695652174;0.006198347107438017;0.43067327450669446;23.0;12.0;0.9166666666666666;0.4782608695652174;527.4360156634607;5.857980995127572;29.0;4.844187086458591;5.54907608489522;6.311734809152915;7.029087564149662;7.791935956938058;8.513787398281405;9.276783328524896;10.001203926042198;10.76420214752143;129.08199830196438;4.07753744390572;5.272999558563747;6.586171654854675;7.949797216161852;9.340403256274351;63.226909129760344;422.48515198400173;4.592229912869584;3803.0;31.0;126.0;128.0;12.666666666666668;7.083333333333333