boiling_point;SMILES;IUPAC_name;InChIKey;SpAbs_A;SpMax_A;SpDiam_A;SpAD_A;SpMAD_A;LogEE_A;VE1_A;VE2_A;VE3_A;VR1_A;VR2_A;VR3_A;nAtom;nHeavyAtom;nH;nC;ATS0dv;ATS1dv;ATS2dv;ATS3dv;ATS4dv;ATS5dv;ATS6dv;ATS7dv;ATS8dv;ATS0d;ATS1d;ATS2d;ATS3d;ATS4d;ATS5d;ATS6d;ATS7d;ATS8d;ATS0s;ATS1s;ATS2s;ATS3s;ATS4s;ATS5s;ATS6s;ATS7s;ATS8s;ATS0Z;ATS1Z;ATS2Z;ATS3Z;ATS4Z;ATS5Z;ATS6Z;ATS7Z;ATS8Z;ATS0m;ATS1m;ATS2m;ATS3m;ATS4m;ATS5m;ATS6m;ATS7m;ATS8m;ATS0v;ATS1v;ATS2v;ATS3v;ATS4v;ATS5v;ATS6v;ATS7v;ATS8v;ATS0se;ATS1se;ATS2se;ATS3se;ATS4se;ATS5se;ATS6se;ATS7se;ATS8se;ATS0pe;ATS1pe;ATS2pe;ATS3pe;ATS4pe;ATS5pe;ATS6pe;ATS7pe;ATS8pe;ATS0are;ATS1are;ATS2are;ATS3are;ATS4are;ATS5are;ATS6are;ATS7are;ATS8are;ATS0p;ATS1p;ATS2p;ATS3p;ATS4p;ATS5p;ATS6p;ATS7p;ATS8p;ATS0i;ATS1i;ATS2i;ATS3i;ATS4i;ATS5i;ATS6i;ATS7i;ATS8i;AATS0dv;AATS1dv;AATS2dv;AATS3dv;AATS0d;AATS1d;AATS2d;AATS3d;AATS0s;AATS1s;AATS2s;AATS3s;AATS0Z;AATS1Z;AATS2Z;AATS3Z;AATS0m;AATS1m;AATS2m;AATS3m;AATS0v;AATS1v;AATS2v;AATS3v;AATS0se;AATS1se;AATS2se;AATS3se;AATS0pe;AATS1pe;AATS2pe;AATS3pe;AATS0are;AATS1are;AATS2are;AATS3are;AATS0p;AATS1p;AATS2p;AATS3p;AATS0i;AATS1i;AATS2i;AATS3i;ATSC0c;ATSC1c;ATSC2c;ATSC3c;ATSC4c;ATSC5c;ATSC6c;ATSC7c;ATSC8c;ATSC0dv;ATSC1dv;ATSC2dv;ATSC3dv;ATSC4dv;ATSC5dv;ATSC6dv;ATSC7dv;ATSC8dv;ATSC0d;ATSC1d;ATSC2d;ATSC3d;ATSC4d;ATSC5d;ATSC6d;ATSC7d;ATSC8d;ATSC0s;ATSC1s;ATSC2s;ATSC3s;ATSC4s;ATSC5s;ATSC6s;ATSC7s;ATSC8s;ATSC0Z;ATSC1Z;ATSC2Z;ATSC3Z;ATSC4Z;ATSC5Z;ATSC6Z;ATSC7Z;ATSC8Z;ATSC0m;ATSC1m;ATSC2m;ATSC3m;ATSC4m;ATSC5m;ATSC6m;ATSC7m;ATSC8m;ATSC0v;ATSC1v;ATSC2v;ATSC3v;ATSC4v;ATSC5v;ATSC6v;ATSC7v;ATSC8v;ATSC0se;ATSC1se;ATSC2se;ATSC3se;ATSC4se;ATSC5se;ATSC6se;ATSC7se;ATSC8se;ATSC0pe;ATSC1pe;ATSC2pe;ATSC3pe;ATSC4pe;ATSC5pe;ATSC6pe;ATSC7pe;ATSC8pe;ATSC0are;ATSC1are;ATSC2are;ATSC3are;ATSC4are;ATSC5are;ATSC6are;ATSC7are;ATSC8are;ATSC0p;ATSC1p;ATSC2p;ATSC3p;ATSC4p;ATSC5p;ATSC6p;ATSC7p;ATSC8p;ATSC0i;ATSC1i;ATSC2i;ATSC3i;ATSC4i;ATSC5i;ATSC6i;ATSC7i;ATSC8i;AATSC0c;AATSC1c;AATSC2c;AATSC3c;AATSC0dv;AATSC1dv;AATSC2dv;AATSC3dv;AATSC0d;AATSC1d;AATSC2d;AATSC3d;AATSC0s;AATSC1s;AATSC2s;AATSC3s;AATSC0Z;AATSC1Z;AATSC2Z;AATSC3Z;AATSC0m;AATSC1m;AATSC2m;AATSC3m;AATSC0v;AATSC1v;AATSC2v;AATSC3v;AATSC0se;AATSC1se;AATSC2se;AATSC3se;AATSC0pe;AATSC1pe;AATSC2pe;AATSC3pe;AATSC0are;AATSC1are;AATSC2are;AATSC3are;AATSC0p;AATSC1p;AATSC2p;AATSC3p;AATSC0i;AATSC1i;AATSC2i;AATSC3i;MATS1c;MATS2c;MATS3c;MATS1dv;MATS2dv;MATS3dv;MATS1s;MATS2s;MATS3s;MATS1Z;MATS2Z;MATS3Z;MATS1m;MATS2m;MATS3m;MATS1v;MATS2v;MATS3v;MATS1se;MATS2se;MATS3se;MATS1pe;MATS2pe;MATS3pe;MATS1are;MATS2are;MATS3are;MATS1p;MATS2p;MATS3p;MATS1i;MATS2i;MATS3i;GATS1c;GATS2c;GATS3c;GATS1dv;GATS2dv;GATS3dv;GATS1s;GATS2s;GATS3s;GATS1Z;GATS2Z;GATS3Z;GATS1m;GATS2m;GATS3m;GATS1v;GATS2v;GATS3v;GATS1se;GATS2se;GATS3se;GATS1pe;GATS2pe;GATS3pe;GATS1are;GATS2are;GATS3are;GATS1p;GATS2p;GATS3p;GATS1i;GATS2i;GATS3i;BCUTc-1h;BCUTc-1l;BCUTdv-1h;BCUTdv-1l;BCUTd-1h;BCUTd-1l;BCUTs-1h;BCUTs-1l;BCUTZ-1h;BCUTZ-1l;BCUTm-1h;BCUTm-1l;BCUTv-1h;BCUTv-1l;BCUTse-1h;BCUTse-1l;BCUTpe-1h;BCUTpe-1l;BCUTare-1h;BCUTare-1l;BCUTp-1h;BCUTp-1l;BCUTi-1h;BCUTi-1l;BalabanJ;SpAbs_DzZ;SpMax_DzZ;SpDiam_DzZ;SpAD_DzZ;SpMAD_DzZ;LogEE_DzZ;VE1_DzZ;VE2_DzZ;VE3_DzZ;VR1_DzZ;VR2_DzZ;VR3_DzZ;SpAbs_Dzm;SpMax_Dzm;SpDiam_Dzm;SpAD_Dzm;SpMAD_Dzm;LogEE_Dzm;VE1_Dzm;VE2_Dzm;VE3_Dzm;VR1_Dzm;VR2_Dzm;VR3_Dzm;SpAbs_Dzv;SpMax_Dzv;SpDiam_Dzv;SpAD_Dzv;SpMAD_Dzv;LogEE_Dzv;VE1_Dzv;VE2_Dzv;VE3_Dzv;VR1_Dzv;VR2_Dzv;VR3_Dzv;SpAbs_Dzse;SpMax_Dzse;SpDiam_Dzse;SpAD_Dzse;SpMAD_Dzse;LogEE_Dzse;VE1_Dzse;VE2_Dzse;VE3_Dzse;VR1_Dzse;VR2_Dzse;VR3_Dzse;SpAbs_Dzpe;SpMax_Dzpe;SpDiam_Dzpe;SpAD_Dzpe;SpMAD_Dzpe;LogEE_Dzpe;VE1_Dzpe;VE2_Dzpe;VE3_Dzpe;VR1_Dzpe;VR2_Dzpe;VR3_Dzpe;SpAbs_Dzare;SpMax_Dzare;SpDiam_Dzare;SpAD_Dzare;SpMAD_Dzare;LogEE_Dzare;VE1_Dzare;VE2_Dzare;VE3_Dzare;VR1_Dzare;VR2_Dzare;VR3_Dzare;SpAbs_Dzp;SpMax_Dzp;SpDiam_Dzp;SpAD_Dzp;SpMAD_Dzp;LogEE_Dzp;VE1_Dzp;VE2_Dzp;VE3_Dzp;VR1_Dzp;VR2_Dzp;VR3_Dzp;SpAbs_Dzi;SpMax_Dzi;SpDiam_Dzi;SpAD_Dzi;SpMAD_Dzi;LogEE_Dzi;VE1_Dzi;VE2_Dzi;VE3_Dzi;VR1_Dzi;VR2_Dzi;VR3_Dzi;BertzCT;nBonds;nBondsO;nBondsS;nBondsKS;RNCG;RPCG;C1SP3;C2SP3;C3SP3;C4SP3;Xc-3d;Xc-4d;Xc-5d;Xc-6d;Xc-3dv;Xc-4dv;Xc-5dv;Xc-6dv;Xpc-4d;Xpc-5d;Xpc-6d;Xpc-4dv;Xpc-5dv;Xpc-6dv;Xp-0d;Xp-1d;Xp-2d;Xp-3d;Xp-4d;Xp-5d;Xp-6d;Xp-7d;AXp-0d;AXp-1d;Xp-0dv;Xp-1dv;Xp-2dv;Xp-3dv;Xp-4dv;Xp-5dv;Xp-6dv;Xp-7dv;AXp-0dv;AXp-1dv;SZ;Sm;Sv;Sse;Spe;Sare;Sp;Si;MZ;Mm;Mv;Mse;Mpe;Mare;Mp;Mi;SpAbs_D;SpMax_D;SpDiam_D;SpAD_D;SpMAD_D;LogEE_D;VE1_D;VE2_D;VE3_D;VR1_D;VR2_D;VR3_D;NsCH3;NssCH2;NsssCH;NssssC;SsCH3;SssCH2;SsssCH;SssssC;MAXsCH3;MINsCH3;ECIndex;ETA_alpha;ETA_shape_p;ETA_shape_y;ETA_shape_x;ETA_beta;AETA_beta;ETA_beta_s;AETA_beta_s;ETA_eta;AETA_eta;ETA_eta_L;AETA_eta_L;ETA_eta_R;AETA_eta_R;ETA_eta_RL;AETA_eta_RL;ETA_eta_B;AETA_eta_B;ETA_eta_BR;AETA_eta_BR;ETA_epsilon_1;ETA_epsilon_2;ETA_epsilon_3;ETA_epsilon_4;ETA_epsilon_5;ETA_dBeta;AETA_dBeta;ETA_psi_1;ETA_dPsi_B;fragCpx;IC0;IC1;IC2;IC3;IC4;IC5;TIC0;TIC1;TIC2;TIC3;TIC4;TIC5;SIC0;SIC1;SIC2;SIC3;SIC4;SIC5;BIC0;BIC1;BIC2;BIC3;BIC4;BIC5;CIC0;CIC1;CIC2;CIC3;CIC4;CIC5;MIC0;MIC1;MIC2;MIC3;MIC4;MIC5;ZMIC0;ZMIC1;ZMIC2;ZMIC3;ZMIC4;ZMIC5;Kier1;Lipinski;GhoseFilter;FilterItLogS;VMcGowan;LabuteASA;PEOE_VSA6;PEOE_VSA7;SMR_VSA4;SMR_VSA5;SlogP_VSA4;SlogP_VSA5;EState_VSA3;EState_VSA4;EState_VSA5;EState_VSA7;EState_VSA8;VSA_EState4;VSA_EState5;VSA_EState7;VSA_EState8;MDEC-11;MID;AMID;MID_C;AMID_C;MPC2;MPC3;MPC4;MPC5;MPC6;MPC7;MPC8;MPC9;MPC10;TMPC10;piPC1;piPC2;piPC3;piPC4;piPC5;piPC6;piPC7;piPC8;piPC9;piPC10;TpiPC10;apol;bpol;nRot;RotRatio;SLogP;SMR;GGI1;GGI2;GGI3;GGI4;GGI5;GGI6;GGI7;GGI8;GGI9;GGI10;JGI1;JGI2;JGI3;JGI4;JGI5;JGI6;JGI7;JGI8;JGI9;JGI10;JGT10;Diameter;Radius;TopoShapeIndex;PetitjeanIndex;Vabc;VAdjMat;MWC01;MWC02;MWC03;MWC04;MWC05;MWC06;MWC07;MWC08;MWC09;MWC10;TMWC10;SRW02;SRW04;SRW06;SRW08;SRW10;TSRW10;MW;AMW;WPath;WPol;Zagreb1;Zagreb2;mZagreb1;mZagreb2
163.0;CCCCC(CC)CCC;4-ethyloctane;NRJUFUBKIFIKFI-UHFFFAOYSA-N;11.966910862921955;2.0641600904858275;4.128320180971656;11.966910862921955;1.1966910862921956;3.1151105749505694;2.827407996663325;0.28274079966633253;1.0393603897212969;34.55586730382619;3.455586730382619;3.5425773564564538;32.0;10.0;22.0;10.0;36.0;36.0;35.0;31.0;23.0;13.0;5.0;1.0;0.0;58.0;72.0;122.0;141.0;132.0;118.0;90.0;60.0;27.0;49.27777777777778;59.08333333333333;92.66666666666666;114.0;116.08333333333333;115.25;101.0;70.0;33.0;382.0;456.0;555.0;576.0;551.0;471.0;327.0;169.0;57.0;1464.9946180000002;1564.733025;1749.473217;1770.8105609999998;1649.7445519999997;1341.0663899999997;835.6314989999998;375.57189699999986;93.97987199999999;4919.011394973762;6335.857675895377;8408.426471546592;9061.185104596127;8836.057691156904;7883.885632640929;5924.915229169828;3409.4013076220476;1341.1783312726473;223.21136800000002;224.452548;424.876356;565.9641;565.940384;563.4979440000001;498.170604;370.00579600000003;183.79353600000002;171.505;181.9425;333.0825;434.72249999999997;434.6;429.73499999999996;376.5675;275.3425;135.3;168.98000000000002;177.25;326.85;428.49;428.40000000000003;424.26;372.51;273.33000000000004;134.64000000000001;37.670483906678;49.59807482;71.856888732735;81.193759734564;80.18733544971501;74.160898449111;59.11293258911101;37.056286439413;16.018136861829;5336.131905433478;4509.845254493801;9427.325702838136;13310.596395347366;13305.129482658916;13484.966283150112;12185.84792860271;9418.708244393612;4802.0059787866285;1.125;1.1612903225806452;0.5833333333333334;0.38271604938271603;1.8125;2.3225806451612905;2.033333333333333;1.7407407407407407;1.5399305555555556;1.9059139784946235;1.5444444444444443;1.4074074074074074;11.9375;14.709677419354838;9.25;7.111111111111111;45.781081812500005;50.47525887096774;29.157886949999998;21.861858777777776;153.71910609293008;204.3825056740444;140.1404411924432;111.86648277279168;6.975355250000001;7.240404774193548;7.0812726;6.987211111111112;5.35953125;5.8691129032258065;5.551374999999999;5.366944444444444;5.280625000000001;5.717741935483871;5.447500000000001;5.29;1.1772026220836875;1.5999378974193548;1.19761481221225;1.0023920954884444;166.7541220447962;145.4788791772194;157.12209504730225;164.328350559844;0.04582894132566756;-0.0060845206136658225;-0.016344172589364672;0.0016277283296009684;-0.0028676595199630906;-0.003228772463043183;-0.006733240960478512;0.002907739071855479;0.003032753951393804;25.875;5.30859375;-6.765625;-4.12109375;-8.74609375;-8.62109375;-2.59375;4.5859375;5.16796875;8.0;2.9375;-1.75;-2.4375;-3.9375;-2.9375;0.0;1.875;1.6875;3.3576388888888897;-1.0495876736111092;-0.9205729166666657;0.23535156249999972;-0.07714843749999997;0.28743489583333326;-0.5234375000000002;0.14648437499999906;-0.12988281250000072;171.875;-11.81640625;-50.390625;0.87890625;-24.12109375;-27.24609375;-30.46875;16.2109375;19.04296875;832.3288118749999;-57.22260581640611;-244.02367439062482;4.256226878906279;-116.80978212109368;-131.94303324609373;-147.54919846875003;78.5037402109374;92.21824904296864;1547.7509673946556;-106.40787900838225;-453.7724427134329;7.914635628722721;-217.21277781049994;-245.35370449040286;-274.3740351290528;145.98105715199569;171.48377195565772;0.1630474999999998;-0.011209515625000693;-0.047802562500000506;0.0008337656249998858;-0.022882234375000088;-0.025846734374999878;-0.028903874999999662;0.01537834375000052;0.018064921875000355;0.8421874999999983;-0.0579003906250007;-0.24691406250000014;0.004306640624999844;-0.1181933593749999;-0.13350585937499965;-0.14929687499999936;0.07943359375000045;0.09331054687500023;0.6187499999999992;-0.042539062500000294;-0.18140625000000005;0.0031640624999999326;-0.08683593749999996;-0.09808593749999985;-0.10968749999999973;0.058359375000000185;0.0685546875000001;6.919166958336874;-0.4756927283856631;-2.0285739491487678;0.03538210376422207;-0.9710421810847779;-1.0968452166909017;-1.2265795971597173;0.6526032472067759;0.7666122482248259;37.58502473308684;-2.5839704503997742;-11.019245887655046;0.19219614920327632;-5.274716539245718;-5.958080625301825;-6.662799839047187;3.5449511964161853;4.164249899404535;0.0014321544164271113;-0.0001962748585053491;-0.0002724028764894112;2.0095411476555167e-05;0.80859375;0.17124495967741934;-0.11276041666666667;-0.05087770061728395;0.25;0.09475806451612903;-0.029166666666666667;-0.03009259259259259;0.1049262152777778;-0.03385766689068094;-0.01534288194444443;0.0029055748456790088;5.37109375;-0.3811743951612903;-0.83984375;0.010850694444444444;26.010275371093748;-1.8458905102066487;-4.067061239843747;0.0525460108506948;48.36721773108299;-3.432512226076847;-7.562874045223881;0.09771155097188544;0.005095234374999993;-0.00036159727822582884;-0.0007967093750000084;1.0293402777776368e-05;0.026318359374999947;-0.0018677545362903451;-0.004115234375000002;5.316840277777585e-05;0.019335937499999976;-0.0013722278225806546;-0.003023437500000001;3.906249999999917e-05;0.2162239674480273;-0.015344926722118166;-0.03380956581914613;0.0004368160958545935;1.1745320229089637;-0.08335388549676691;-0.1836540981275841;0.0023727919654725474;-0.13704867034869658;-0.19020496209409624;0.014031595508177461;0.211781206171108;-0.13945249597423512;-0.06292121428997435;-0.32268072188677915;-0.14622543950361927;0.027691600597495074;-0.07096774193548387;-0.15636363636363637;0.00202020202020202;-0.0709677419354837;-0.1563636363636363;0.002020202020202034;-0.07096774193548366;-0.1563636363636363;0.0020202020202020328;-0.07096774193548835;-0.1563636363636382;0.002020202020201746;-0.07096774193548487;-0.15636363636363676;0.002020202020201951;-0.07096774193548444;-0.1563636363636366;0.0020202020202019794;-0.07096774193548433;-0.15636363636363657;0.0020202020202019872;-0.07096774193548536;-0.15636363636363693;0.0020202020202019296;1.667399845556674;1.3069626031269033;0.9332357380403525;1.391304347826087;1.6373590982286634;1.272022425001491;1.927611168562564;1.0514994829369182;0.7408939446167986;1.6;1.3527272727272728;1.002020202020202;1.6000000000000003;1.352727272727273;1.0020202020202025;1.6000000000000005;1.352727272727273;1.002020202020202;1.6;1.352727272727273;1.002020202020202;1.6000000000000003;1.3527272727272728;1.002020202020202;1.6000000000000003;1.3527272727272728;1.002020202020202;1.6;1.352727272727273;1.0020202020202023;1.5999999999999999;1.3527272727272726;1.002020202020202;0.21174215491126527;-0.21038222710037538;3.0295115807534834;0.9871435008754915;3.0295115807534834;0.9871435008754915;2.027255371026777;1.2157887608367304;6.214021685999938;5.792333379406307;12.225021685999945;11.803333379406302;20.793547962115493;20.371859655521845;2.960021685999941;2.538333379406313;2.764021685999937;2.3423333794063104;2.7140216859999415;2.2923333794063074;1.8840216859999424;1.4623333794063116;11.474321685999946;11.052633379406295;3.2055351009964133;58.924732527562725;29.462366263781362;43.00892893923046;58.924732527562725;5.892473252756273;29.462366263781963;3.102329769363592;0.3102329769363592;1.1321533677318358;31.77165906074352;3.177165906074352;3.4585746679045326;58.924732527562725;29.462366263781362;43.00892893923046;58.924732527562725;5.892473252756273;29.462366263781963;3.102329769363592;0.3102329769363592;1.1321533677318358;31.77165906074352;3.177165906074352;3.4585746679045326;58.924732527562725;29.462366263781362;43.00892893923046;58.924732527562725;5.892473252756273;29.462366263781963;3.102329769363592;0.3102329769363592;1.1321533677318358;31.77165906074352;3.177165906074352;3.4585746679045326;58.924732527562725;29.462366263781362;43.00892893923046;58.924732527562725;5.892473252756273;29.462366263781963;3.102329769363592;0.3102329769363592;1.1321533677318358;31.77165906074352;3.177165906074352;3.4585746679045326;58.924732527562725;29.462366263781362;43.00892893923046;58.924732527562725;5.892473252756273;29.462366263781963;3.102329769363592;0.3102329769363592;1.1321533677318358;31.77165906074352;3.177165906074352;3.4585746679045326;58.924732527562725;29.462366263781362;43.00892893923046;58.924732527562725;5.892473252756273;29.462366263781963;3.102329769363592;0.3102329769363592;1.1321533677318358;31.77165906074352;3.177165906074352;3.4585746679045326;58.924732527562725;29.462366263781362;43.00892893923046;58.924732527562725;5.892473252756273;29.462366263781963;3.102329769363592;0.3102329769363592;1.1321533677318358;31.77165906074352;3.177165906074352;3.4585746679045326;58.924732527562725;29.462366263781362;43.00892893923046;58.924732527562725;5.892473252756273;29.462366263781963;3.102329769363592;0.3102329769363592;1.1321533677318358;31.77165906074352;3.177165906074352;3.4585746679045326;57.058650025961626;31.0;9.0;31.0;31.0;0.11728816704995823;0.05427878062054132;3.0;6.0;1.0;0.0;0.2041241452319315;0.0;0.0;0.0;0.2041241452319315;0.0;0.0;0.0;0.4927992798267444;0.6371368471241508;0.6247546414099727;0.4927992798267444;0.6371368471241508;0.6247546414099727;7.819990956308912;4.846065214951232;3.2051773540312016;2.24019952053737;1.453633428051877;0.8835364870375231;0.34846171252933794;0.10206207261596575;0.7819990956308912;0.5384516905501369;7.819990956308912;4.846065214951232;3.2051773540312016;2.24019952053737;1.453633428051877;0.8835364870375231;0.34846171252933794;0.10206207261596575;0.7819990956308912;0.5384516905501369;13.666666666666668;11.846307551411208;15.96010584164462;30.766205389657685;28.98039215686275;29.360000000000003;18.784099401197608;36.568186105165935;0.42708333333333337;0.37019711098160024;0.49875330755139435;0.9614439184268027;0.9056372549019609;0.9175000000000001;0.5870031062874252;1.1427558157864355;58.924732527562725;29.462366263781362;43.00892893923046;58.924732527562725;5.892473252756273;29.462366263781963;3.102329769363592;0.3102329769363592;1.1321533677318358;31.77165906074352;3.177165906074352;3.4585746679045326;3.0;6.0;1.0;0.0;6.87823223733938;8.436628873771731;1.018472222222222;0.0;2.315462962962963;2.276454081632653;94.0;5.0;0.3;0.1;0.0;4.5;0.45;4.5;0.45;11.589757565620015;1.1589757565620016;4.846065214951231;0.4846065214951231;11.589757565620015;1.1589757565620016;4.846065214951231;0.4846065214951231;0.0681483474218636;0.00681483474218636;0.0681483474218636;0.00681483474218636;0.425;0.7;0.425;0.425;0.7;-4.5;-0.45;0.7142857142857143;0.00028571428571433355;9.0;0.8960382325345574;1.300870058859033;2.4280074211313076;3.2334585933443494;3.804229296672175;3.9917292966721747;28.673223441105836;41.627841883489054;77.69623747620184;103.47067498701918;121.7353374935096;127.73533749350959;0.17920764650691148;0.2601740117718066;0.48560148422626154;0.6466917186688699;0.760845859334435;0.7983458593344349;0.1808644987797396;0.26257943314269827;0.4900910801699143;0.6526706635675984;0.7678802086821428;0.8057269124162864;4.103961767465442;3.699129941140967;2.5719925788686924;1.7665414066556506;1.1957707033278249;1.0082707033278253;6.673151904630568;11.535586970613844;15.941618130928337;19.076138762091105;20.33916313104555;20.528163131045545;39.639944988972836;31.177975668276126;26.85667186688699;20.913627340099147;17.833646483360873;17.037687890016525;10.0;1.0;0.0;-3.493302638111995;151.76000000000002;66.02373005739902;59.296141336627926;5.917906046161393;5.917906046161393;59.296141336627926;5.917906046161393;59.296141336627926;0.0;5.917906046161393;38.524929737556064;0.0;20.771211599071872;0.0;1.018472222222222;8.436628873771731;6.87823223733938;0.5047172597219922;18.66624230692673;1.866624230692673;18.66624230692673;1.866624230692673;9.0;9.0;8.0;6.0;3.0;1.0;0.0;0.0;0.0;55.0;2.302585092994046;2.302585092994046;2.302585092994046;2.1972245773362196;1.9459101490553132;1.3862943611198906;0.6931471805599453;0.0;0.0;0.0;4.02535169073515;31.369446;22.070553999999998;6.0;0.6666666666666666;4.002900000000003;48.21400000000003;1.5;0.666666666666667;0.375;0.24000000000000005;0.1111111111111111;0.04081632653061225;0.0;0.0;0.0;0.0;0.16666666666666669;0.07407407407407411;0.041666666666666664;0.030000000000000006;0.018518518518518517;0.01360544217687075;0.0;0.0;0.0;0.0;0.3445313681027967;7.0;4.0;0.75;0.42857142857142855;181.5163111863147;4.169925001442312;9.0;3.6109179126442243;4.290459441148391;5.003946305945459;5.713732805509369;6.437751649736401;7.155396301896734;7.88193748927207;8.6020856584342;9.329278296047697;77.02550586063455;2.9444389791664403;4.007333185232471;5.262690188904886;6.610696044717759;8.00603417874901;36.83119257677056;142.172150704;4.4428797095;141.0;9.0;36.0;36.0;4.611111111111111;2.75