boiling_point;SMILES;IUPAC_name;InChIKey;SpAbs_A;SpMax_A;SpDiam_A;SpAD_A;SpMAD_A;LogEE_A;VE1_A;VE2_A;VE3_A;VR1_A;VR2_A;VR3_A;nAtom;nHeavyAtom;nH;nC;ATS0dv;ATS1dv;ATS2dv;ATS3dv;ATS4dv;ATS5dv;ATS6dv;ATS7dv;ATS8dv;ATS0d;ATS1d;ATS2d;ATS3d;ATS4d;ATS5d;ATS6d;ATS7d;ATS8d;ATS0s;ATS1s;ATS2s;ATS3s;ATS4s;ATS5s;ATS6s;ATS7s;ATS8s;ATS0Z;ATS1Z;ATS2Z;ATS3Z;ATS4Z;ATS5Z;ATS6Z;ATS7Z;ATS8Z;ATS0m;ATS1m;ATS2m;ATS3m;ATS4m;ATS5m;ATS6m;ATS7m;ATS8m;ATS0v;ATS1v;ATS2v;ATS3v;ATS4v;ATS5v;ATS6v;ATS7v;ATS8v;ATS0se;ATS1se;ATS2se;ATS3se;ATS4se;ATS5se;ATS6se;ATS7se;ATS8se;ATS0pe;ATS1pe;ATS2pe;ATS3pe;ATS4pe;ATS5pe;ATS6pe;ATS7pe;ATS8pe;ATS0are;ATS1are;ATS2are;ATS3are;ATS4are;ATS5are;ATS6are;ATS7are;ATS8are;ATS0p;ATS1p;ATS2p;ATS3p;ATS4p;ATS5p;ATS6p;ATS7p;ATS8p;ATS0i;ATS1i;ATS2i;ATS3i;ATS4i;ATS5i;ATS6i;ATS7i;ATS8i;AATS0dv;AATS1dv;AATS2dv;AATS3dv;AATS0d;AATS1d;AATS2d;AATS3d;AATS0s;AATS1s;AATS2s;AATS3s;AATS0Z;AATS1Z;AATS2Z;AATS3Z;AATS0m;AATS1m;AATS2m;AATS3m;AATS0v;AATS1v;AATS2v;AATS3v;AATS0se;AATS1se;AATS2se;AATS3se;AATS0pe;AATS1pe;AATS2pe;AATS3pe;AATS0are;AATS1are;AATS2are;AATS3are;AATS0p;AATS1p;AATS2p;AATS3p;AATS0i;AATS1i;AATS2i;AATS3i;ATSC0c;ATSC1c;ATSC2c;ATSC3c;ATSC4c;ATSC5c;ATSC6c;ATSC7c;ATSC8c;ATSC0dv;ATSC1dv;ATSC2dv;ATSC3dv;ATSC4dv;ATSC5dv;ATSC6dv;ATSC7dv;ATSC8dv;ATSC0d;ATSC1d;ATSC2d;ATSC3d;ATSC4d;ATSC5d;ATSC6d;ATSC7d;ATSC8d;ATSC0s;ATSC1s;ATSC2s;ATSC3s;ATSC4s;ATSC5s;ATSC6s;ATSC7s;ATSC8s;ATSC0Z;ATSC1Z;ATSC2Z;ATSC3Z;ATSC4Z;ATSC5Z;ATSC6Z;ATSC7Z;ATSC8Z;ATSC0m;ATSC1m;ATSC2m;ATSC3m;ATSC4m;ATSC5m;ATSC6m;ATSC7m;ATSC8m;ATSC0v;ATSC1v;ATSC2v;ATSC3v;ATSC4v;ATSC5v;ATSC6v;ATSC7v;ATSC8v;ATSC0se;ATSC1se;ATSC2se;ATSC3se;ATSC4se;ATSC5se;ATSC6se;ATSC7se;ATSC8se;ATSC0pe;ATSC1pe;ATSC2pe;ATSC3pe;ATSC4pe;ATSC5pe;ATSC6pe;ATSC7pe;ATSC8pe;ATSC0are;ATSC1are;ATSC2are;ATSC3are;ATSC4are;ATSC5are;ATSC6are;ATSC7are;ATSC8are;ATSC0p;ATSC1p;ATSC2p;ATSC3p;ATSC4p;ATSC5p;ATSC6p;ATSC7p;ATSC8p;ATSC0i;ATSC1i;ATSC2i;ATSC3i;ATSC4i;ATSC5i;ATSC6i;ATSC7i;ATSC8i;AATSC0c;AATSC1c;AATSC2c;AATSC3c;AATSC0dv;AATSC1dv;AATSC2dv;AATSC3dv;AATSC0d;AATSC1d;AATSC2d;AATSC3d;AATSC0s;AATSC1s;AATSC2s;AATSC3s;AATSC0Z;AATSC1Z;AATSC2Z;AATSC3Z;AATSC0m;AATSC1m;AATSC2m;AATSC3m;AATSC0v;AATSC1v;AATSC2v;AATSC3v;AATSC0se;AATSC1se;AATSC2se;AATSC3se;AATSC0pe;AATSC1pe;AATSC2pe;AATSC3pe;AATSC0are;AATSC1are;AATSC2are;AATSC3are;AATSC0p;AATSC1p;AATSC2p;AATSC3p;AATSC0i;AATSC1i;AATSC2i;AATSC3i;MATS1c;MATS2c;MATS3c;MATS1dv;MATS2dv;MATS3dv;MATS1s;MATS2s;MATS3s;MATS1Z;MATS2Z;MATS3Z;MATS1m;MATS2m;MATS3m;MATS1v;MATS2v;MATS3v;MATS1se;MATS2se;MATS3se;MATS1pe;MATS2pe;MATS3pe;MATS1are;MATS2are;MATS3are;MATS1p;MATS2p;MATS3p;MATS1i;MATS2i;MATS3i;GATS1c;GATS2c;GATS3c;GATS1dv;GATS2dv;GATS3dv;GATS1s;GATS2s;GATS3s;GATS1Z;GATS2Z;GATS3Z;GATS1m;GATS2m;GATS3m;GATS1v;GATS2v;GATS3v;GATS1se;GATS2se;GATS3se;GATS1pe;GATS2pe;GATS3pe;GATS1are;GATS2are;GATS3are;GATS1p;GATS2p;GATS3p;GATS1i;GATS2i;GATS3i;BCUTc-1h;BCUTc-1l;BCUTdv-1h;BCUTdv-1l;BCUTd-1h;BCUTd-1l;BCUTs-1h;BCUTs-1l;BCUTZ-1h;BCUTZ-1l;BCUTm-1h;BCUTm-1l;BCUTv-1h;BCUTv-1l;BCUTse-1h;BCUTse-1l;BCUTpe-1h;BCUTpe-1l;BCUTare-1h;BCUTare-1l;BCUTp-1h;BCUTp-1l;BCUTi-1h;BCUTi-1l;BalabanJ;SpAbs_DzZ;SpMax_DzZ;SpDiam_DzZ;SpAD_DzZ;SpMAD_DzZ;LogEE_DzZ;VE1_DzZ;VE2_DzZ;VE3_DzZ;VR1_DzZ;VR2_DzZ;VR3_DzZ;SpAbs_Dzm;SpMax_Dzm;SpDiam_Dzm;SpAD_Dzm;SpMAD_Dzm;LogEE_Dzm;VE1_Dzm;VE2_Dzm;VE3_Dzm;VR1_Dzm;VR2_Dzm;VR3_Dzm;SpAbs_Dzv;SpMax_Dzv;SpDiam_Dzv;SpAD_Dzv;SpMAD_Dzv;LogEE_Dzv;VE1_Dzv;VE2_Dzv;VE3_Dzv;VR1_Dzv;VR2_Dzv;VR3_Dzv;SpAbs_Dzse;SpMax_Dzse;SpDiam_Dzse;SpAD_Dzse;SpMAD_Dzse;LogEE_Dzse;VE1_Dzse;VE2_Dzse;VE3_Dzse;VR1_Dzse;VR2_Dzse;VR3_Dzse;SpAbs_Dzpe;SpMax_Dzpe;SpDiam_Dzpe;SpAD_Dzpe;SpMAD_Dzpe;LogEE_Dzpe;VE1_Dzpe;VE2_Dzpe;VE3_Dzpe;VR1_Dzpe;VR2_Dzpe;VR3_Dzpe;SpAbs_Dzare;SpMax_Dzare;SpDiam_Dzare;SpAD_Dzare;SpMAD_Dzare;LogEE_Dzare;VE1_Dzare;VE2_Dzare;VE3_Dzare;VR1_Dzare;VR2_Dzare;VR3_Dzare;SpAbs_Dzp;SpMax_Dzp;SpDiam_Dzp;SpAD_Dzp;SpMAD_Dzp;LogEE_Dzp;VE1_Dzp;VE2_Dzp;VE3_Dzp;VR1_Dzp;VR2_Dzp;VR3_Dzp;SpAbs_Dzi;SpMax_Dzi;SpDiam_Dzi;SpAD_Dzi;SpMAD_Dzi;LogEE_Dzi;VE1_Dzi;VE2_Dzi;VE3_Dzi;VR1_Dzi;VR2_Dzi;VR3_Dzi;BertzCT;nBonds;nBondsO;nBondsS;nBondsKS;RNCG;RPCG;C1SP3;C2SP3;C3SP3;C4SP3;Xc-3d;Xc-4d;Xc-5d;Xc-6d;Xc-3dv;Xc-4dv;Xc-5dv;Xc-6dv;Xpc-4d;Xpc-5d;Xpc-6d;Xpc-4dv;Xpc-5dv;Xpc-6dv;Xp-0d;Xp-1d;Xp-2d;Xp-3d;Xp-4d;Xp-5d;Xp-6d;Xp-7d;AXp-0d;AXp-1d;Xp-0dv;Xp-1dv;Xp-2dv;Xp-3dv;Xp-4dv;Xp-5dv;Xp-6dv;Xp-7dv;AXp-0dv;AXp-1dv;SZ;Sm;Sv;Sse;Spe;Sare;Sp;Si;MZ;Mm;Mv;Mse;Mpe;Mare;Mp;Mi;SpAbs_D;SpMax_D;SpDiam_D;SpAD_D;SpMAD_D;LogEE_D;VE1_D;VE2_D;VE3_D;VR1_D;VR2_D;VR3_D;NsCH3;NssCH2;NsssCH;NssssC;SsCH3;SssCH2;SsssCH;SssssC;MAXsCH3;MINsCH3;ECIndex;ETA_alpha;ETA_shape_p;ETA_shape_y;ETA_shape_x;ETA_beta;AETA_beta;ETA_beta_s;AETA_beta_s;ETA_eta;AETA_eta;ETA_eta_L;AETA_eta_L;ETA_eta_R;AETA_eta_R;ETA_eta_RL;AETA_eta_RL;ETA_eta_B;AETA_eta_B;ETA_eta_BR;AETA_eta_BR;ETA_epsilon_1;ETA_epsilon_2;ETA_epsilon_3;ETA_epsilon_4;ETA_epsilon_5;ETA_dBeta;AETA_dBeta;ETA_psi_1;ETA_dPsi_B;fragCpx;IC0;IC1;IC2;IC3;IC4;IC5;TIC0;TIC1;TIC2;TIC3;TIC4;TIC5;SIC0;SIC1;SIC2;SIC3;SIC4;SIC5;BIC0;BIC1;BIC2;BIC3;BIC4;BIC5;CIC0;CIC1;CIC2;CIC3;CIC4;CIC5;MIC0;MIC1;MIC2;MIC3;MIC4;MIC5;ZMIC0;ZMIC1;ZMIC2;ZMIC3;ZMIC4;ZMIC5;Kier1;Lipinski;GhoseFilter;FilterItLogS;VMcGowan;LabuteASA;PEOE_VSA6;PEOE_VSA7;SMR_VSA4;SMR_VSA5;SlogP_VSA4;SlogP_VSA5;EState_VSA3;EState_VSA4;EState_VSA5;EState_VSA7;EState_VSA8;VSA_EState4;VSA_EState5;VSA_EState7;VSA_EState8;MDEC-11;MID;AMID;MID_C;AMID_C;MPC2;MPC3;MPC4;MPC5;MPC6;MPC7;MPC8;MPC9;MPC10;TMPC10;piPC1;piPC2;piPC3;piPC4;piPC5;piPC6;piPC7;piPC8;piPC9;piPC10;TpiPC10;apol;bpol;nRot;RotRatio;SLogP;SMR;GGI1;GGI2;GGI3;GGI4;GGI5;GGI6;GGI7;GGI8;GGI9;GGI10;JGI1;JGI2;JGI3;JGI4;JGI5;JGI6;JGI7;JGI8;JGI9;JGI10;JGT10;Diameter;Radius;TopoShapeIndex;PetitjeanIndex;Vabc;VAdjMat;MWC01;MWC02;MWC03;MWC04;MWC05;MWC06;MWC07;MWC08;MWC09;MWC10;TMWC10;SRW02;SRW04;SRW06;SRW08;SRW10;TSRW10;MW;AMW;WPath;WPol;Zagreb1;Zagreb2;mZagreb1;mZagreb2
216.3;CCCCCCCCCCCC;dodecane;SNRUBQQJIBEYMU-UHFFFAOYSA-N;14.592459621117507;1.9418836348521034;3.883767269704207;14.592459621117507;1.2160383017597922;3.2911002302538686;3.2303233719910076;0.269193614332584;1.3549038041848256;45.05100970385687;3.754250808654739;3.9901169535573318;38.0;12.0;26.0;12.0;42.0;40.0;36.0;32.0;28.0;24.0;20.0;16.0;12.0;68.0;86.0;140.0;160.0;144.0;128.0;112.0;96.0;80.0;56.5;68.25;111.0;134.75;122.5;110.25;98.0;85.75;73.5;458.0;552.0;652.0;624.0;560.0;496.0;432.0;368.0;304.0;1757.5871159999997;1901.6896189999998;2015.8242819999996;1855.6458569999995;1658.8891279999993;1462.1323989999996;1265.3756699999997;1068.6189409999997;871.8622119999998;5890.38017619614;7641.837944876112;10010.39328143204;10122.609735990402;9115.811391035277;8109.013046080152;7102.214701125026;6095.416356169901;5088.618011214776;265.16625600000003;268.00410800000003;510.31165599999997;689.29146;626.40656;563.5216600000001;500.63676;437.75185999999997;374.86696;203.87;217.3875;400.525;526.4625;478.15999999999997;429.8575;381.55499999999995;333.25250000000005;284.95000000000005;200.84000000000003;211.75;392.94000000000005;519.57;471.96000000000004;424.35;376.74000000000007;329.13;281.52000000000004;45.02673552607401;59.63005206;86.225844737584;93.21038045275199;84.18885159335599;75.16732273395999;66.14579387456399;57.12426501516799;48.10273615577199;6329.391225710474;5375.9241575254;11270.263188081384;16448.343505915756;14969.388350877158;13490.433195838561;12011.478040799964;10532.522885761367;9053.56773072277;1.105263157894737;1.0810810810810811;0.5;0.32323232323232326;1.7894736842105263;2.324324324324324;1.9444444444444444;1.6161616161616161;1.486842105263158;1.8445945945945945;1.5416666666666667;1.3611111111111112;12.052631578947368;14.91891891891892;9.055555555555555;6.303030303030303;46.252292526315784;51.39701672972972;27.997559472222218;18.74389754545454;155.01000463674055;206.53616067232733;139.03324001988943;102.24858319182223;6.978059368421054;7.243354270270271;7.0876618888888885;6.962540000000001;5.365;5.875337837837837;5.562847222222222;5.31780303030303;5.285263157894738;5.722972972972973;5.4575000000000005;5.248181818181819;1.1849140927914215;1.6116230286486486;1.1975811769108888;0.9415189944722423;166.56292699238088;145.2952475006865;156.531433167797;166.14488389813894;0.054980108124446855;-0.004436660402071264;-0.02577712695489301;-0.00011355071448168304;-4.171979318205385e-06;-6.998378062586692e-08;5.76495676467715e-09;1.3141238665802767e-07;1.7486026652709704e-06;29.263157894736842;1.4542936288088635;-12.814404432132964;-0.8171745152354573;-0.8864265927977835;-0.9556786703601108;-1.0249307479224372;-1.094182825484764;-1.163434903047091;7.3684210526315805;1.0360110803324112;-2.80332409972299;-0.3545706371191135;-0.39889196675900274;-0.44321329639889206;-0.4875346260387813;-0.5318559556786706;-0.57617728531856;3.2105263157894726;-0.6523545706371178;-1.1883656509695282;0.030470914127423504;0.02770083102493049;0.024930747922437407;0.02216066481994436;0.019390581717451325;0.01662049861495831;205.2631578947368;-11.703601108033242;-91.55124653739611;-1.8698060941828252;-1.9390581717451525;-2.0083102493074794;-2.077562326869807;-2.1468144044321296;-2.216066481994459;994.0156528421054;-56.67633108310294;-443.349761490305;-9.054798457063654;-9.390161362880818;-9.725524268697988;-10.060887174515162;-10.396250080332347;-10.731612986149536;1848.4145524483542;-105.39205781503772;-824.4278132040231;-16.837784384651002;-17.461406028526962;-18.08502767240293;-18.70864931627891;-19.332270960154858;-19.955892604030826;0.19472084210526297;-0.011102504155123663;-0.08684917451523455;-0.001773772853185693;-0.0018394681440444343;-0.0019051634349031695;-0.001970858725761908;-0.0020365540166206466;-0.002102249307479384;1.0057894736842083;-0.05734764542936477;-0.4486011080332418;-0.00916204986149562;-0.009501385041551;-0.009840720221606366;-0.010180055401661732;-0.010519390581717122;-0.010858725761772499;0.7389473684210516;-0.042132963988922204;-0.32958448753462777;-0.006731301939057896;-0.006980609418282234;-0.007229916897506584;-0.0074792243767309256;-0.007728531855955272;-0.007977839335179615;8.263273075602315;-0.4711515350124095;-3.685575912937332;-0.07527273044577043;-0.0780606093511694;-0.08084848825656832;-0.0836363671619672;-0.0864242460673662;-0.08921212497276518;44.88623049463384;-2.559302615922288;-20.020106853544668;-0.4088826664490749;-0.4240264689101497;-0.439170271371225;-0.45431407383230027;-0.46945787629337565;-0.4846016787544507;0.0014468449506433382;-0.00011990974059652064;-0.0003580156521512918;-1.1469769139563944e-06;0.7700831024930748;0.03930523321105037;-0.17797783933518005;-0.008254288032681386;0.19390581717451527;0.028000299468443547;-0.03893505694059708;-0.0035815215870617528;0.08448753462603875;-0.017631204611813993;-0.016505078485687892;0.0003077870113881162;5.4016620498614945;-0.3163135434603579;-1.2715450907971682;-0.01888693024427096;26.158306653739615;-1.5317927319757552;-6.157635576254236;-0.09146261067741066;48.64248822232511;-2.8484339950010193;-11.450386294500321;-0.1700786301479899;0.005124232686980605;-0.0003000676798682071;-0.0012062385349338133;-1.7916897506926193e-05;0.02646814404432127;-0.0015499363629558045;-0.006230570944906136;-9.254595819692545e-05;0.019445983379501357;-0.001138728756457357;-0.00457756232686983;-6.799294887937268e-05;0.21745455462111357;-0.012733825270605662;-0.05118855434635183;-0.0007603306105633377;1.1812165919640485;-0.06917034097087264;-0.27805703963256484;-0.0041301279439300495;-0.08287670392269944;-0.24744576258299167;-0.0007927434888212397;0.051040248881975475;-0.23111510791366904;-0.010718697769057482;-0.2086840939299952;-0.1953551912568305;0.0036429872495445897;-0.05855855855855858;-0.23539886039886043;-0.0034965034965034965;-0.05855855855855901;-0.23539886039886052;-0.003496503496503474;-0.05855855855855854;-0.23539886039886043;-0.003496503496503497;-0.05855855855855339;-0.23539886039885818;-0.0034965034965036925;-0.05855855855856062;-0.23539886039886132;-0.0034965034965034184;-0.05855855855856217;-0.23539886039886196;-0.0034965034965033577;-0.058558558558558155;-0.2353988603988602;-0.003496503496503513;-0.05855855855856274;-0.23539886039886224;-0.003496503496503335;1.6079063214353264;1.419770607558714;0.9379980676000793;1.5035971223021585;1.527802757793765;1.0089564711866872;1.7909836065573776;1.2004781420765032;0.8148700115913233;1.583333333333334;1.4395477207977212;0.9559052059052061;1.5833333333333335;1.4395477207977208;0.9559052059052059;1.5833333333333333;1.4395477207977212;0.955905205905206;1.5833333333333333;1.4395477207977208;0.9559052059052056;1.5833333333333333;1.439547720797721;0.9559052059052059;1.583333333333334;1.4395477207977212;0.9559052059052061;1.5833333333333337;1.4395477207977208;0.9559052059052059;1.5833333333333335;1.439547720797721;0.9559052059052059;0.20278018388813673;-0.19427652101514187;2.1984854683639603;0.9871436101971666;2.1984854683639603;0.9871436101971666;2.0257209468286304;1.3084557285812652;6.203031770313608;5.805956906542015;12.214031770313612;11.816956906542012;20.782558046429088;20.385483182657556;2.949031770313603;2.551956906542015;2.7530317703136022;2.355956906542015;2.703031770313601;2.3059569065420136;1.8730317703136037;1.4759569065420146;11.463331770313593;11.066256906542014;2.72724281291869;99.25747698333788;49.628738491668955;78.97647876215947;99.25747698333792;8.271456415278161;49.628738491668955;3.405621332410325;0.2838017777008604;1.4077489562274261;40.96039339426539;3.4133661161887825;3.894927141831268;99.25747698333788;49.628738491668955;78.97647876215947;99.25747698333792;8.271456415278161;49.628738491668955;3.405621332410325;0.2838017777008604;1.4077489562274261;40.96039339426539;3.4133661161887825;3.894927141831268;99.25747698333788;49.628738491668955;78.97647876215947;99.25747698333792;8.271456415278161;49.628738491668955;3.405621332410325;0.2838017777008604;1.4077489562274261;40.96039339426539;3.4133661161887825;3.894927141831268;99.25747698333788;49.628738491668955;78.97647876215947;99.25747698333792;8.271456415278161;49.628738491668955;3.405621332410325;0.2838017777008604;1.4077489562274261;40.96039339426539;3.4133661161887825;3.894927141831268;99.25747698333788;49.628738491668955;78.97647876215947;99.25747698333792;8.271456415278161;49.628738491668955;3.405621332410325;0.2838017777008604;1.4077489562274261;40.96039339426539;3.4133661161887825;3.894927141831268;99.25747698333788;49.628738491668955;78.97647876215947;99.25747698333792;8.271456415278161;49.628738491668955;3.405621332410325;0.2838017777008604;1.4077489562274261;40.96039339426539;3.4133661161887825;3.894927141831268;99.25747698333788;49.628738491668955;78.97647876215947;99.25747698333792;8.271456415278161;49.628738491668955;3.405621332410325;0.2838017777008604;1.4077489562274261;40.96039339426539;3.4133661161887825;3.894927141831268;99.25747698333788;49.628738491668955;78.97647876215947;99.25747698333792;8.271456415278161;49.628738491668955;3.405621332410325;0.2838017777008604;1.4077489562274261;40.96039339426539;3.4133661161887825;3.894927141831268;56.43856189774725;37.0;11.0;37.0;37.0;0.09757083781939109;0.03977453993307407;2.0;10.0;0.0;0.0;0.0;0.0;0.0;0.0;0.0;0.0;0.0;0.0;0.0;0.0;0.0;0.0;0.0;0.0;9.071067811865477;5.914213562373096;3.8284271247461907;2.457106781186548;1.5606601717798214;0.9785533905932737;0.6035533905932737;0.36427669529663687;0.7559223176554565;0.5376557783975542;9.071067811865477;5.914213562373096;3.8284271247461907;2.457106781186548;1.5606601717798214;0.9785533905932737;0.6035533905932737;0.36427669529663687;0.7559223176554565;0.5376557783975542;16.333333333333332;14.181999833485976;19.04376144921636;36.541879096868186;34.431372549019606;34.88000000000001;22.381208383233542;43.39876539701429;0.4298245614035087;0.37321052193384147;0.501151617084641;0.9616283972860049;0.9060887512899897;0.9178947368421055;0.5889791679798301;1.142072773605639;99.25747698333788;49.628738491668955;78.97647876215947;99.25747698333792;8.271456415278161;49.628738491668955;3.405621332410325;0.2838017777008604;1.4077489562274261;40.96039339426539;3.4133661161887825;3.894927141831268;2.0;10.0;0.0;0.0;4.558032193976458;14.441967806023545;0.0;0.0;2.279016096988229;2.279016096988229;182.0;6.0;0.16666666666666666;0.0;0.0;5.5;0.4583333333333333;5.5;0.4583333333333333;13.877936989272508;1.1564947491060422;5.914213562373096;0.492851130197758;13.877936989272508;1.1564947491060422;5.914213562373096;0.492851130197758;-8.881784197001252e-16;-7.401486830834377e-17;-8.881784197001252e-16;-7.401486830834377e-17;0.4263157894736842;0.6999999999999998;0.4263157894736842;0.4263157894736842;0.6999999999999998;-5.5;-0.4583333333333333;0.7142857142857144;0.00028571428571444457;11.0;0.8997437586982626;1.1050139971135322;1.8282344370732122;2.3789919869000626;2.8655768552072485;3.2608281712244547;34.19026283053398;41.99053189031422;69.47290860878206;90.40169550220239;108.89192049787545;123.91147050652928;0.17144744404212792;0.21056197790133807;0.34837265423156755;0.45332028325578294;0.5460397171772127;0.6213554137078323;0.1727136602536098;0.2121170724752464;0.3509455424124878;0.4566682567111993;0.5500724652060074;0.6259444019095787;4.348183754745323;4.142913516330053;3.419693076370373;2.8689355265435226;2.3823506582363367;1.9870993422191305;6.685132456657814;9.150633290263617;11.970001290597093;14.404426627859156;16.490274027023567;18.046897879884703;47.55009264780696;42.83293844949645;40.35187351810857;35.483006521859096;30.49656487635264;26.5088469447254;12.0;1.0;1.0;-4.696233471684752;179.94000000000003;78.75361428619225;78.05569062864136;0.0;0.0;78.05569062864136;0.0;78.05569062864136;0.0;0.0;64.20821622926012;0.0;13.847474399381248;0.0;0.0;14.441967806023545;4.558032193976458;0.09090909090909091;22.828594676382178;1.9023828896985149;22.828594676382178;1.9023828896985149;10.0;9.0;8.0;7.0;6.0;5.0;4.0;3.0;2.0;77.0;2.4849066497880004;2.3978952727983707;2.302585092994046;2.1972245773362196;2.0794415416798357;1.9459101490553132;1.791759469228055;1.6094379124341003;1.3862943611198906;1.0986122886681098;4.356708826689592;37.376618;26.083382;9.0;0.8181818181818182;4.9272000000000045;57.51800000000005;0.5;0.22222222222222232;0.125;0.08000000000000002;0.05555555555555555;0.04081632653061225;0.03125;0.02469135802469135;0.020000000000000004;0.01652892561983471;0.045454545454545456;0.022222222222222233;0.013888888888888888;0.010000000000000002;0.007936507936507936;0.006802721088435375;0.00625;0.006172839506172837;0.006666666666666668;0.008264462809917356;0.13365885457335674;11.0;6.0;0.8333333333333334;0.45454545454545453;216.10828163402934;4.459431618637297;11.0;3.7612001156935624;4.394449154672439;5.043425116919247;5.6937321388027;6.35088571671474;7.007600613951853;7.668093709082406;8.327726166461412;8.989818381366925;80.23693111366529;3.1354942159291497;4.143134726391533;5.2832037287379885;6.484635235635252;7.720017940432244;38.76648584712617;170.203450832;4.479038179789473;286.0;9.0;42.0;40.0;4.5;3.25