boiling_point;SMILES;IUPAC_name;InChIKey;SpAbs_A;SpMax_A;SpDiam_A;SpAD_A;SpMAD_A;LogEE_A;VE1_A;VE2_A;VE3_A;VR1_A;VR2_A;VR3_A;nAtom;nHeavyAtom;nH;nC;ATS0dv;ATS1dv;ATS2dv;ATS3dv;ATS4dv;ATS5dv;ATS6dv;ATS7dv;ATS8dv;ATS0d;ATS1d;ATS2d;ATS3d;ATS4d;ATS5d;ATS6d;ATS7d;ATS8d;ATS0s;ATS1s;ATS2s;ATS3s;ATS4s;ATS5s;ATS6s;ATS7s;ATS8s;ATS0Z;ATS1Z;ATS2Z;ATS3Z;ATS4Z;ATS5Z;ATS6Z;ATS7Z;ATS8Z;ATS0m;ATS1m;ATS2m;ATS3m;ATS4m;ATS5m;ATS6m;ATS7m;ATS8m;ATS0v;ATS1v;ATS2v;ATS3v;ATS4v;ATS5v;ATS6v;ATS7v;ATS8v;ATS0se;ATS1se;ATS2se;ATS3se;ATS4se;ATS5se;ATS6se;ATS7se;ATS8se;ATS0pe;ATS1pe;ATS2pe;ATS3pe;ATS4pe;ATS5pe;ATS6pe;ATS7pe;ATS8pe;ATS0are;ATS1are;ATS2are;ATS3are;ATS4are;ATS5are;ATS6are;ATS7are;ATS8are;ATS0p;ATS1p;ATS2p;ATS3p;ATS4p;ATS5p;ATS6p;ATS7p;ATS8p;ATS0i;ATS1i;ATS2i;ATS3i;ATS4i;ATS5i;ATS6i;ATS7i;ATS8i;AATS0dv;AATS1dv;AATS2dv;AATS3dv;AATS0d;AATS1d;AATS2d;AATS3d;AATS0s;AATS1s;AATS2s;AATS3s;AATS0Z;AATS1Z;AATS2Z;AATS3Z;AATS0m;AATS1m;AATS2m;AATS3m;AATS0v;AATS1v;AATS2v;AATS3v;AATS0se;AATS1se;AATS2se;AATS3se;AATS0pe;AATS1pe;AATS2pe;AATS3pe;AATS0are;AATS1are;AATS2are;AATS3are;AATS0p;AATS1p;AATS2p;AATS3p;AATS0i;AATS1i;AATS2i;AATS3i;ATSC0c;ATSC1c;ATSC2c;ATSC3c;ATSC4c;ATSC5c;ATSC6c;ATSC7c;ATSC8c;ATSC0dv;ATSC1dv;ATSC2dv;ATSC3dv;ATSC4dv;ATSC5dv;ATSC6dv;ATSC7dv;ATSC8dv;ATSC0d;ATSC1d;ATSC2d;ATSC3d;ATSC4d;ATSC5d;ATSC6d;ATSC7d;ATSC8d;ATSC0s;ATSC1s;ATSC2s;ATSC3s;ATSC4s;ATSC5s;ATSC6s;ATSC7s;ATSC8s;ATSC0Z;ATSC1Z;ATSC2Z;ATSC3Z;ATSC4Z;ATSC5Z;ATSC6Z;ATSC7Z;ATSC8Z;ATSC0m;ATSC1m;ATSC2m;ATSC3m;ATSC4m;ATSC5m;ATSC6m;ATSC7m;ATSC8m;ATSC0v;ATSC1v;ATSC2v;ATSC3v;ATSC4v;ATSC5v;ATSC6v;ATSC7v;ATSC8v;ATSC0se;ATSC1se;ATSC2se;ATSC3se;ATSC4se;ATSC5se;ATSC6se;ATSC7se;ATSC8se;ATSC0pe;ATSC1pe;ATSC2pe;ATSC3pe;ATSC4pe;ATSC5pe;ATSC6pe;ATSC7pe;ATSC8pe;ATSC0are;ATSC1are;ATSC2are;ATSC3are;ATSC4are;ATSC5are;ATSC6are;ATSC7are;ATSC8are;ATSC0p;ATSC1p;ATSC2p;ATSC3p;ATSC4p;ATSC5p;ATSC6p;ATSC7p;ATSC8p;ATSC0i;ATSC1i;ATSC2i;ATSC3i;ATSC4i;ATSC5i;ATSC6i;ATSC7i;ATSC8i;AATSC0c;AATSC1c;AATSC2c;AATSC3c;AATSC0dv;AATSC1dv;AATSC2dv;AATSC3dv;AATSC0d;AATSC1d;AATSC2d;AATSC3d;AATSC0s;AATSC1s;AATSC2s;AATSC3s;AATSC0Z;AATSC1Z;AATSC2Z;AATSC3Z;AATSC0m;AATSC1m;AATSC2m;AATSC3m;AATSC0v;AATSC1v;AATSC2v;AATSC3v;AATSC0se;AATSC1se;AATSC2se;AATSC3se;AATSC0pe;AATSC1pe;AATSC2pe;AATSC3pe;AATSC0are;AATSC1are;AATSC2are;AATSC3are;AATSC0p;AATSC1p;AATSC2p;AATSC3p;AATSC0i;AATSC1i;AATSC2i;AATSC3i;MATS1c;MATS2c;MATS3c;MATS1dv;MATS2dv;MATS3dv;MATS1s;MATS2s;MATS3s;MATS1Z;MATS2Z;MATS3Z;MATS1m;MATS2m;MATS3m;MATS1v;MATS2v;MATS3v;MATS1se;MATS2se;MATS3se;MATS1pe;MATS2pe;MATS3pe;MATS1are;MATS2are;MATS3are;MATS1p;MATS2p;MATS3p;MATS1i;MATS2i;MATS3i;GATS1c;GATS2c;GATS3c;GATS1dv;GATS2dv;GATS3dv;GATS1s;GATS2s;GATS3s;GATS1Z;GATS2Z;GATS3Z;GATS1m;GATS2m;GATS3m;GATS1v;GATS2v;GATS3v;GATS1se;GATS2se;GATS3se;GATS1pe;GATS2pe;GATS3pe;GATS1are;GATS2are;GATS3are;GATS1p;GATS2p;GATS3p;GATS1i;GATS2i;GATS3i;BCUTc-1h;BCUTc-1l;BCUTdv-1h;BCUTdv-1l;BCUTd-1h;BCUTd-1l;BCUTs-1h;BCUTs-1l;BCUTZ-1h;BCUTZ-1l;BCUTm-1h;BCUTm-1l;BCUTv-1h;BCUTv-1l;BCUTse-1h;BCUTse-1l;BCUTpe-1h;BCUTpe-1l;BCUTare-1h;BCUTare-1l;BCUTp-1h;BCUTp-1l;BCUTi-1h;BCUTi-1l;BalabanJ;SpAbs_DzZ;SpMax_DzZ;SpDiam_DzZ;SpAD_DzZ;SpMAD_DzZ;LogEE_DzZ;VE1_DzZ;VE2_DzZ;VE3_DzZ;VR1_DzZ;VR2_DzZ;VR3_DzZ;SpAbs_Dzm;SpMax_Dzm;SpDiam_Dzm;SpAD_Dzm;SpMAD_Dzm;LogEE_Dzm;VE1_Dzm;VE2_Dzm;VE3_Dzm;VR1_Dzm;VR2_Dzm;VR3_Dzm;SpAbs_Dzv;SpMax_Dzv;SpDiam_Dzv;SpAD_Dzv;SpMAD_Dzv;LogEE_Dzv;VE1_Dzv;VE2_Dzv;VE3_Dzv;VR1_Dzv;VR2_Dzv;VR3_Dzv;SpAbs_Dzse;SpMax_Dzse;SpDiam_Dzse;SpAD_Dzse;SpMAD_Dzse;LogEE_Dzse;VE1_Dzse;VE2_Dzse;VE3_Dzse;VR1_Dzse;VR2_Dzse;VR3_Dzse;SpAbs_Dzpe;SpMax_Dzpe;SpDiam_Dzpe;SpAD_Dzpe;SpMAD_Dzpe;LogEE_Dzpe;VE1_Dzpe;VE2_Dzpe;VE3_Dzpe;VR1_Dzpe;VR2_Dzpe;VR3_Dzpe;SpAbs_Dzare;SpMax_Dzare;SpDiam_Dzare;SpAD_Dzare;SpMAD_Dzare;LogEE_Dzare;VE1_Dzare;VE2_Dzare;VE3_Dzare;VR1_Dzare;VR2_Dzare;VR3_Dzare;SpAbs_Dzp;SpMax_Dzp;SpDiam_Dzp;SpAD_Dzp;SpMAD_Dzp;LogEE_Dzp;VE1_Dzp;VE2_Dzp;VE3_Dzp;VR1_Dzp;VR2_Dzp;VR3_Dzp;SpAbs_Dzi;SpMax_Dzi;SpDiam_Dzi;SpAD_Dzi;SpMAD_Dzi;LogEE_Dzi;VE1_Dzi;VE2_Dzi;VE3_Dzi;VR1_Dzi;VR2_Dzi;VR3_Dzi;BertzCT;nBonds;nBondsO;nBondsS;nBondsKS;RNCG;RPCG;C1SP3;C2SP3;C3SP3;C4SP3;Xc-3d;Xc-4d;Xc-5d;Xc-6d;Xc-3dv;Xc-4dv;Xc-5dv;Xc-6dv;Xpc-4d;Xpc-5d;Xpc-6d;Xpc-4dv;Xpc-5dv;Xpc-6dv;Xp-0d;Xp-1d;Xp-2d;Xp-3d;Xp-4d;Xp-5d;Xp-6d;Xp-7d;AXp-0d;AXp-1d;Xp-0dv;Xp-1dv;Xp-2dv;Xp-3dv;Xp-4dv;Xp-5dv;Xp-6dv;Xp-7dv;AXp-0dv;AXp-1dv;SZ;Sm;Sv;Sse;Spe;Sare;Sp;Si;MZ;Mm;Mv;Mse;Mpe;Mare;Mp;Mi;SpAbs_D;SpMax_D;SpDiam_D;SpAD_D;SpMAD_D;LogEE_D;VE1_D;VE2_D;VE3_D;VR1_D;VR2_D;VR3_D;NsCH3;NssCH2;NsssCH;NssssC;SsCH3;SssCH2;SsssCH;SssssC;MAXsCH3;MINsCH3;ECIndex;ETA_alpha;ETA_shape_p;ETA_shape_y;ETA_shape_x;ETA_beta;AETA_beta;ETA_beta_s;AETA_beta_s;ETA_eta;AETA_eta;ETA_eta_L;AETA_eta_L;ETA_eta_R;AETA_eta_R;ETA_eta_RL;AETA_eta_RL;ETA_eta_B;AETA_eta_B;ETA_eta_BR;AETA_eta_BR;ETA_epsilon_1;ETA_epsilon_2;ETA_epsilon_3;ETA_epsilon_4;ETA_epsilon_5;ETA_dBeta;AETA_dBeta;ETA_psi_1;ETA_dPsi_B;fragCpx;IC0;IC1;IC2;IC3;IC4;IC5;TIC0;TIC1;TIC2;TIC3;TIC4;TIC5;SIC0;SIC1;SIC2;SIC3;SIC4;SIC5;BIC0;BIC1;BIC2;BIC3;BIC4;BIC5;CIC0;CIC1;CIC2;CIC3;CIC4;CIC5;MIC0;MIC1;MIC2;MIC3;MIC4;MIC5;ZMIC0;ZMIC1;ZMIC2;ZMIC3;ZMIC4;ZMIC5;Kier1;Lipinski;GhoseFilter;FilterItLogS;VMcGowan;LabuteASA;PEOE_VSA6;PEOE_VSA7;SMR_VSA4;SMR_VSA5;SlogP_VSA4;SlogP_VSA5;EState_VSA3;EState_VSA4;EState_VSA5;EState_VSA7;EState_VSA8;VSA_EState4;VSA_EState5;VSA_EState7;VSA_EState8;MDEC-11;MID;AMID;MID_C;AMID_C;MPC2;MPC3;MPC4;MPC5;MPC6;MPC7;MPC8;MPC9;MPC10;TMPC10;piPC1;piPC2;piPC3;piPC4;piPC5;piPC6;piPC7;piPC8;piPC9;piPC10;TpiPC10;apol;bpol;nRot;RotRatio;SLogP;SMR;GGI1;GGI2;GGI3;GGI4;GGI5;GGI6;GGI7;GGI8;GGI9;GGI10;JGI1;JGI2;JGI3;JGI4;JGI5;JGI6;JGI7;JGI8;JGI9;JGI10;JGT10;Diameter;Radius;TopoShapeIndex;PetitjeanIndex;Vabc;VAdjMat;MWC01;MWC02;MWC03;MWC04;MWC05;MWC06;MWC07;MWC08;MWC09;MWC10;TMWC10;SRW02;SRW04;SRW06;SRW08;SRW10;TSRW10;MW;AMW;WPath;WPol;Zagreb1;Zagreb2;mZagreb1;mZagreb2
157.0;CCCC(C)CCC(C)C;2,5-dimethyloctane;HOAAQUNESXYFDT-UHFFFAOYSA-N;11.12708953017563;2.052880840033716;4.105761680067432;11.12708953017563;1.112708953017563;3.1236469897271792;2.92484757243399;0.292484757243399;1.0732423673375635;30.76179812139994;3.076179812139994;3.4262735994113727;32.0;10.0;22.0;10.0;38.0;37.0;33.0;28.0;22.0;14.0;7.0;2.0;0.0;60.0;71.0;127.0;135.0;135.0;110.0;81.0;66.0;27.0;50.55555555555556;60.16666666666666;94.25;122.94444444444443;122.91666666666666;103.66666666666666;92.33333333333333;69.0;39.0;382.0;456.0;580.0;581.0;505.0;432.0;318.0;194.0;87.0;1464.9946180000002;1564.733025;1870.5392259999999;1716.2906959999996;1471.2769749999998;1265.3756699999997;826.4869229999998;496.6379059999998;160.52601599999997;4919.011394973762;6335.857675895377;8633.553884985815;9337.974922794434;8388.766745958525;7102.214701125026;5645.161529291456;3634.5287210612705;1843.0955629101775;223.21136800000002;224.452548;424.900072;568.335392;623.987836;500.63676000000004;437.704428;370.029512;186.188544;171.505;181.9425;333.20500000000004;439.22;473.41749999999996;381.555;333.00750000000005;275.46500000000003;139.92000000000002;168.98000000000002;177.25;326.94;432.36;467.90999999999997;376.74;328.95000000000005;273.42;138.60000000000002;37.670483906678;49.59807482;72.863313017584;84.200923880621;79.168838877601;66.14579387456399;55.11141644547;38.062710724262004;20.031725292734997;5336.131905433478;4509.8452544938;9432.792615526585;13114.358856790823;15154.692064056802;12011.478040799964;10521.589060384471;9424.175157082063;4611.235352918535;1.1875;1.1935483870967742;0.55;0.345679012345679;1.875;2.2903225806451615;2.1166666666666667;1.6666666666666667;1.5798611111111112;1.940860215053763;1.5708333333333333;1.517832647462277;11.9375;14.709677419354838;9.666666666666666;7.172839506172839;45.781081812500005;50.47525887096774;31.175653766666663;21.18877402469135;153.71910609293008;204.3825056740444;143.89256474976358;115.2836410221535;6.975355250000001;7.240404774193548;7.081667866666667;7.016486320987654;5.35953125;5.8691129032258065;5.553416666666667;5.422469135802469;5.280625000000001;5.717741935483871;5.449;5.337777777777778;1.1772026220836875;1.5999378974193548;1.2143885502930667;1.0395175787730988;166.7541220447962;145.47887917721934;157.21321025877643;161.90566489865213;0.0450939384512734;-0.006909458871814498;-0.006601301380349036;-0.017063531842456646;0.0056560439426341005;0.0031438112968050083;-0.013214617457625468;0.01116488126200579;-0.008387094329207652;27.875;6.30859375;-12.140625;-7.12109375;-0.1484375;-7.09375;-3.44140625;2.2109375;1.79296875;10.0;1.9375;-4.25;-0.9375;-1.875;-2.5;-0.5625;0.375;1.6875;3.833333333333334;-1.7100694444444438;0.6041666666666673;-1.6649305555555551;0.5729166666666661;0.9583333333333335;-1.765625;1.635416666666666;-1.328125;171.875;-11.81640625;-25.390625;-70.99609375;19.7265625;-2.34375;-52.44140625;41.2109375;-27.83203125;832.3288118749999;-57.22260581640609;-122.95766539062484;-343.8085489960936;95.52864772656245;-11.349938343750004;-253.95487044140623;199.56974921093735;-134.78051783203125;1547.7509673946556;-106.4078790083823;-228.64502927421023;-639.3266780090423;177.63959966688648;-21.105695009927132;-472.2399258471195;371.1084705912184;-250.63012824288472;0.1630474999999998;-0.011209515625000697;-0.02408656250000054;-0.06734973437500025;0.018713406250000265;-0.002223374999999893;-0.04974801562499982;0.039094343750000496;-0.026402578124999805;0.8421874999999983;-0.05790039062500069;-0.12441406250000038;-0.3478808593749997;0.09666015625000011;-0.01148437499999988;-0.25696289062499933;0.2019335937500002;-0.13637695312499953;0.6187499999999992;-0.042539062500000294;-0.09140625000000016;-0.2555859374999998;0.07101562500000005;-0.008437499999999945;-0.18878906249999972;0.1483593750000001;-0.1001953124999998;6.919166958336874;-0.47569272838566307;-1.022149664299768;-2.8580877151766533;0.7941316622636653;-0.09435227670459306;-2.111132191265284;1.6590275320557757;-1.1204332858670498;37.58502473308684;-2.5839704503997742;-5.552333199206053;-15.5251778300876;4.313735793229305;-0.5125230645420857;-11.467703569129325;9.01186388486518;-6.086211391437345;0.0014091855766022938;-0.0002228857700585322;-0.00011002168967248393;-0.0002106608869439092;0.87109375;0.20350302419354838;-0.20234375;-0.08791473765432099;0.3125;0.0625;-0.07083333333333333;-0.011574074074074073;0.11979166666666669;-0.0551635304659498;0.010069444444444456;-0.020554698216735248;5.37109375;-0.3811743951612903;-0.4231770833333333;-0.8764949845679012;26.010275371093748;-1.845890510206648;-2.0492944231770807;-4.244549987606094;48.36721773108299;-3.4325122260768484;-3.810750487903504;-7.892921950728917;0.005095234374999993;-0.00036159727822582895;-0.00040144270833334235;-0.0008314782021604969;0.026318359374999947;-0.001867754536290345;-0.0020735677083333396;-0.0042948254243827125;0.019335937499999976;-0.0013722278225806546;-0.0015234375000000027;-0.003155381944444442;0.2162239674480273;-0.015344926722118164;-0.017035827738329467;-0.03528503352069942;1.1745320229089637;-0.08335388549676691;-0.09253888665343422;-0.1916688620998469;-0.15816637195218464;-0.07807466347885755;-0.14949123127688865;0.23361782149573265;-0.23228699551569507;-0.10092454188119361;-0.46049555867227654;0.08405797101449283;-0.17158704598318117;-0.07096774193548387;-0.07878787878787878;-0.1631874298540965;-0.07096774193548368;-0.0787878787878787;-0.16318742985409646;-0.07096774193548369;-0.0787878787878787;-0.16318742985409648;-0.07096774193548838;-0.07878787878788066;-0.16318742985409732;-0.07096774193548486;-0.07878787878787918;-0.1631874298540967;-0.07096774193548444;-0.07878787878787902;-0.1631874298540966;-0.07096774193548432;-0.07878787878787899;-0.1631874298540966;-0.07096774193548536;-0.07878787878787939;-0.16318742985409676;1.6873331933069025;1.1807382849337338;1.208891186256145;1.399103139013453;1.8905829596412556;1.1395670708077286;2.072463768115942;0.7749999999999997;1.1786544999105384;1.6;1.2775757575757576;1.2246913580246914;1.6000000000000003;1.277575757575758;1.2246913580246916;1.6000000000000005;1.2775757575757578;1.2246913580246916;1.6;1.2775757575757576;1.2246913580246912;1.6;1.2775757575757574;1.2246913580246914;1.6000000000000003;1.2775757575757578;1.2246913580246916;1.6;1.2775757575757578;1.2246913580246916;1.5999999999999999;1.2775757575757571;1.2246913580246912;0.2134673483808865;-0.21387105925974725;3.026925574420987;0.9871396903748327;3.026925574420987;0.9871396903748327;2.037241732381851;1.2267651324165632;6.216780465238261;5.790083487730238;12.227780465238267;11.801083487730258;20.79630674135381;20.369609763845737;2.962780465238262;2.536083487730232;2.7667804652382557;2.340083487730229;2.7167804652382546;2.2900834877302305;1.8867804652382587;1.4600834877302291;11.47708046523825;11.050383487730235;3.1244021505020694;59.37538021168671;29.687690105843366;45.59475535032433;59.375380211686725;5.937538021168672;29.68769010584383;3.1112165903503377;0.31112165903503375;1.1350138363054354;31.420316434709786;3.1420316434709785;3.4474547039005614;59.37538021168671;29.687690105843366;45.59475535032433;59.375380211686725;5.937538021168672;29.68769010584383;3.1112165903503377;0.31112165903503375;1.1350138363054354;31.420316434709786;3.1420316434709785;3.4474547039005614;59.37538021168671;29.687690105843366;45.59475535032433;59.375380211686725;5.937538021168672;29.68769010584383;3.1112165903503377;0.31112165903503375;1.1350138363054354;31.420316434709786;3.1420316434709785;3.4474547039005614;59.37538021168671;29.687690105843366;45.59475535032433;59.375380211686725;5.937538021168672;29.68769010584383;3.1112165903503377;0.31112165903503375;1.1350138363054354;31.420316434709786;3.1420316434709785;3.4474547039005614;59.37538021168671;29.687690105843366;45.59475535032433;59.375380211686725;5.937538021168672;29.68769010584383;3.1112165903503377;0.31112165903503375;1.1350138363054354;31.420316434709786;3.1420316434709785;3.4474547039005614;59.37538021168671;29.687690105843366;45.59475535032433;59.375380211686725;5.937538021168672;29.68769010584383;3.1112165903503377;0.31112165903503375;1.1350138363054354;31.420316434709786;3.1420316434709785;3.4474547039005614;59.37538021168671;29.687690105843366;45.59475535032433;59.375380211686725;5.937538021168672;29.68769010584383;3.1112165903503377;0.31112165903503375;1.1350138363054354;31.420316434709786;3.1420316434709785;3.4474547039005614;59.37538021168671;29.687690105843366;45.59475535032433;59.375380211686725;5.937538021168672;29.68769010584383;3.1112165903503377;0.31112165903503375;1.1350138363054354;31.420316434709786;3.1420316434709785;3.4474547039005614;64.43856189774723;31.0;9.0;31.0;31.0;0.11823292379947896;0.05423063988737692;4.0;4.0;2.0;0.0;0.6969234250586759;0.0;0.0;0.0;0.6969234250586759;0.0;0.0;0.0;0.6969234250586759;0.6329795093937625;0.7478909578906802;0.6969234250586759;0.6329795093937625;0.7478909578906802;7.983127663125442;4.663902460147014;3.8650439694243297;2.018290630104594;1.2549879773219088;0.7967064943595888;0.25;0.16666666666666666;0.7983127663125442;0.5182113844607793;7.983127663125442;4.663902460147014;3.8650439694243297;2.018290630104594;1.2549879773219088;0.7967064943595888;0.25;0.16666666666666666;0.7983127663125442;0.5182113844607793;13.666666666666668;11.846307551411208;15.96010584164462;30.766205389657685;28.98039215686275;29.360000000000003;18.784099401197608;36.568186105165935;0.42708333333333337;0.37019711098160024;0.49875330755139435;0.9614439184268027;0.9056372549019609;0.9175000000000001;0.5870031062874252;1.1427558157864355;59.37538021168671;29.687690105843366;45.59475535032433;59.375380211686725;5.937538021168672;29.68769010584383;3.1112165903503377;0.31112165903503375;1.1350138363054354;31.420316434709786;3.1420316434709785;3.4474547039005614;4.0;4.0;2.0;0.0;9.245124716553288;5.581999244142102;1.839542705971277;0.0;2.3669444444444445;2.269716553287982;96.0;5.0;0.4;0.2;0.0;4.5;0.45;4.5;0.45;11.984152212149823;1.1984152212149823;4.663902460147014;0.4663902460147014;11.984152212149823;1.1984152212149823;4.663902460147014;0.4663902460147014;0.2503111022260809;0.025031110222608087;0.2503111022260809;0.025031110222608087;0.425;0.7;0.425;0.425;0.7;-4.5;-0.45;0.7142857142857143;0.00028571428571433355;9.0;0.8960382325345574;1.3716407621868583;2.54595859334435;3.3501878900165245;3.9056390622295662;3.9056390622295662;28.673223441105836;43.892504389979464;81.4706749870192;107.20601248052878;124.98044999134612;124.98044999134612;0.17920764650691148;0.27432815243737163;0.5091917186688699;0.6700375780033049;0.7811278124459132;0.7811278124459132;0.1808644987797396;0.2768644349661926;0.5138994165424049;0.6762323654782479;0.788349677230407;0.788349677230407;4.103961767465442;3.6283592378131417;2.45404140665565;1.6498121099834755;1.0943609377704338;1.0943609377704338;6.673151904630568;12.385613888284354;16.488637062947063;19.881489393136654;20.4413841747274;20.4413841747274;39.639944988972836;29.17609676811088;26.143420306820897;19.62227382346002;17.45037578003305;17.45037578003305;10.0;1.0;0.0;-3.119502638111995;151.76000000000002;66.02373005739902;53.378235290466534;11.835812092322787;11.835812092322787;53.378235290466534;11.835812092322787;53.378235290466534;0.0;11.835812092322787;25.683286491704038;0.0;27.694948798762496;0.0;1.839542705971277;5.581999244142102;9.245124716553288;1.2970206913581894;18.487534507511732;1.8487534507511731;18.487534507511732;1.8487534507511731;10.0;8.0;7.0;6.0;3.0;2.0;0.0;0.0;0.0;55.0;2.302585092994046;2.3978952727983707;2.1972245773362196;2.0794415416798357;1.9459101490553132;1.3862943611198906;1.0986122886681098;0.0;0.0;0.0;4.02535169073515;31.369446;22.070553999999998;5.0;0.5555555555555556;3.858800000000003;48.14400000000003;2.5;0.8888888888888893;0.375;0.32000000000000006;0.1111111111111111;0.0816326530612245;0.0;0.0;0.0;0.0;0.2777777777777778;0.08888888888888893;0.046875;0.04571428571428572;0.018518518518518517;0.0272108843537415;0.0;0.0;0.0;0.0;0.5049853552532124;7.0;4.0;0.75;0.42857142857142855;181.5163111863147;4.169925001442312;9.0;3.6635616461296463;4.31748811353631;5.056245805348308;5.739792912179234;6.478509642208569;7.175489713624222;7.9102237070973445;8.614501373883236;9.345308232386667;77.30112114639354;2.9444389791664403;4.07753744390572;5.351858133476067;6.688354713946762;8.058010800802085;37.12020007129708;142.172150704;4.4428797095;143.0;8.0;38.0;37.0;5.222222222222222;2.5000000000000004