boiling_point;SMILES;IUPAC_name;InChIKey;SpAbs_A;SpMax_A;SpDiam_A;SpAD_A;SpMAD_A;LogEE_A;VE1_A;VE2_A;VE3_A;VR1_A;VR2_A;VR3_A;nAtom;nHeavyAtom;nH;nC;ATS0dv;ATS1dv;ATS2dv;ATS3dv;ATS4dv;ATS5dv;ATS6dv;ATS7dv;ATS8dv;ATS0d;ATS1d;ATS2d;ATS3d;ATS4d;ATS5d;ATS6d;ATS7d;ATS8d;ATS0s;ATS1s;ATS2s;ATS3s;ATS4s;ATS5s;ATS6s;ATS7s;ATS8s;ATS0Z;ATS1Z;ATS2Z;ATS3Z;ATS4Z;ATS5Z;ATS6Z;ATS7Z;ATS8Z;ATS0m;ATS1m;ATS2m;ATS3m;ATS4m;ATS5m;ATS6m;ATS7m;ATS8m;ATS0v;ATS1v;ATS2v;ATS3v;ATS4v;ATS5v;ATS6v;ATS7v;ATS8v;ATS0se;ATS1se;ATS2se;ATS3se;ATS4se;ATS5se;ATS6se;ATS7se;ATS8se;ATS0pe;ATS1pe;ATS2pe;ATS3pe;ATS4pe;ATS5pe;ATS6pe;ATS7pe;ATS8pe;ATS0are;ATS1are;ATS2are;ATS3are;ATS4are;ATS5are;ATS6are;ATS7are;ATS8are;ATS0p;ATS1p;ATS2p;ATS3p;ATS4p;ATS5p;ATS6p;ATS7p;ATS8p;ATS0i;ATS1i;ATS2i;ATS3i;ATS4i;ATS5i;ATS6i;ATS7i;ATS8i;AATS0dv;AATS1dv;AATS2dv;AATS3dv;AATS0d;AATS1d;AATS2d;AATS3d;AATS0s;AATS1s;AATS2s;AATS3s;AATS0Z;AATS1Z;AATS2Z;AATS3Z;AATS0m;AATS1m;AATS2m;AATS3m;AATS0v;AATS1v;AATS2v;AATS3v;AATS0se;AATS1se;AATS2se;AATS3se;AATS0pe;AATS1pe;AATS2pe;AATS3pe;AATS0are;AATS1are;AATS2are;AATS3are;AATS0p;AATS1p;AATS2p;AATS3p;AATS0i;AATS1i;AATS2i;AATS3i;ATSC0c;ATSC1c;ATSC2c;ATSC3c;ATSC4c;ATSC5c;ATSC6c;ATSC7c;ATSC8c;ATSC0dv;ATSC1dv;ATSC2dv;ATSC3dv;ATSC4dv;ATSC5dv;ATSC6dv;ATSC7dv;ATSC8dv;ATSC0d;ATSC1d;ATSC2d;ATSC3d;ATSC4d;ATSC5d;ATSC6d;ATSC7d;ATSC8d;ATSC0s;ATSC1s;ATSC2s;ATSC3s;ATSC4s;ATSC5s;ATSC6s;ATSC7s;ATSC8s;ATSC0Z;ATSC1Z;ATSC2Z;ATSC3Z;ATSC4Z;ATSC5Z;ATSC6Z;ATSC7Z;ATSC8Z;ATSC0m;ATSC1m;ATSC2m;ATSC3m;ATSC4m;ATSC5m;ATSC6m;ATSC7m;ATSC8m;ATSC0v;ATSC1v;ATSC2v;ATSC3v;ATSC4v;ATSC5v;ATSC6v;ATSC7v;ATSC8v;ATSC0se;ATSC1se;ATSC2se;ATSC3se;ATSC4se;ATSC5se;ATSC6se;ATSC7se;ATSC8se;ATSC0pe;ATSC1pe;ATSC2pe;ATSC3pe;ATSC4pe;ATSC5pe;ATSC6pe;ATSC7pe;ATSC8pe;ATSC0are;ATSC1are;ATSC2are;ATSC3are;ATSC4are;ATSC5are;ATSC6are;ATSC7are;ATSC8are;ATSC0p;ATSC1p;ATSC2p;ATSC3p;ATSC4p;ATSC5p;ATSC6p;ATSC7p;ATSC8p;ATSC0i;ATSC1i;ATSC2i;ATSC3i;ATSC4i;ATSC5i;ATSC6i;ATSC7i;ATSC8i;AATSC0c;AATSC1c;AATSC2c;AATSC3c;AATSC0dv;AATSC1dv;AATSC2dv;AATSC3dv;AATSC0d;AATSC1d;AATSC2d;AATSC3d;AATSC0s;AATSC1s;AATSC2s;AATSC3s;AATSC0Z;AATSC1Z;AATSC2Z;AATSC3Z;AATSC0m;AATSC1m;AATSC2m;AATSC3m;AATSC0v;AATSC1v;AATSC2v;AATSC3v;AATSC0se;AATSC1se;AATSC2se;AATSC3se;AATSC0pe;AATSC1pe;AATSC2pe;AATSC3pe;AATSC0are;AATSC1are;AATSC2are;AATSC3are;AATSC0p;AATSC1p;AATSC2p;AATSC3p;AATSC0i;AATSC1i;AATSC2i;AATSC3i;MATS1c;MATS2c;MATS3c;MATS1dv;MATS2dv;MATS3dv;MATS1s;MATS2s;MATS3s;MATS1Z;MATS2Z;MATS3Z;MATS1m;MATS2m;MATS3m;MATS1v;MATS2v;MATS3v;MATS1se;MATS2se;MATS3se;MATS1pe;MATS2pe;MATS3pe;MATS1are;MATS2are;MATS3are;MATS1p;MATS2p;MATS3p;MATS1i;MATS2i;MATS3i;GATS1c;GATS2c;GATS3c;GATS1dv;GATS2dv;GATS3dv;GATS1s;GATS2s;GATS3s;GATS1Z;GATS2Z;GATS3Z;GATS1m;GATS2m;GATS3m;GATS1v;GATS2v;GATS3v;GATS1se;GATS2se;GATS3se;GATS1pe;GATS2pe;GATS3pe;GATS1are;GATS2are;GATS3are;GATS1p;GATS2p;GATS3p;GATS1i;GATS2i;GATS3i;BCUTc-1h;BCUTc-1l;BCUTdv-1h;BCUTdv-1l;BCUTd-1h;BCUTd-1l;BCUTs-1h;BCUTs-1l;BCUTZ-1h;BCUTZ-1l;BCUTm-1h;BCUTm-1l;BCUTv-1h;BCUTv-1l;BCUTse-1h;BCUTse-1l;BCUTpe-1h;BCUTpe-1l;BCUTare-1h;BCUTare-1l;BCUTp-1h;BCUTp-1l;BCUTi-1h;BCUTi-1l;BalabanJ;SpAbs_DzZ;SpMax_DzZ;SpDiam_DzZ;SpAD_DzZ;SpMAD_DzZ;LogEE_DzZ;VE1_DzZ;VE2_DzZ;VE3_DzZ;VR1_DzZ;VR2_DzZ;VR3_DzZ;SpAbs_Dzm;SpMax_Dzm;SpDiam_Dzm;SpAD_Dzm;SpMAD_Dzm;LogEE_Dzm;VE1_Dzm;VE2_Dzm;VE3_Dzm;VR1_Dzm;VR2_Dzm;VR3_Dzm;SpAbs_Dzv;SpMax_Dzv;SpDiam_Dzv;SpAD_Dzv;SpMAD_Dzv;LogEE_Dzv;VE1_Dzv;VE2_Dzv;VE3_Dzv;VR1_Dzv;VR2_Dzv;VR3_Dzv;SpAbs_Dzse;SpMax_Dzse;SpDiam_Dzse;SpAD_Dzse;SpMAD_Dzse;LogEE_Dzse;VE1_Dzse;VE2_Dzse;VE3_Dzse;VR1_Dzse;VR2_Dzse;VR3_Dzse;SpAbs_Dzpe;SpMax_Dzpe;SpDiam_Dzpe;SpAD_Dzpe;SpMAD_Dzpe;LogEE_Dzpe;VE1_Dzpe;VE2_Dzpe;VE3_Dzpe;VR1_Dzpe;VR2_Dzpe;VR3_Dzpe;SpAbs_Dzare;SpMax_Dzare;SpDiam_Dzare;SpAD_Dzare;SpMAD_Dzare;LogEE_Dzare;VE1_Dzare;VE2_Dzare;VE3_Dzare;VR1_Dzare;VR2_Dzare;VR3_Dzare;SpAbs_Dzp;SpMax_Dzp;SpDiam_Dzp;SpAD_Dzp;SpMAD_Dzp;LogEE_Dzp;VE1_Dzp;VE2_Dzp;VE3_Dzp;VR1_Dzp;VR2_Dzp;VR3_Dzp;SpAbs_Dzi;SpMax_Dzi;SpDiam_Dzi;SpAD_Dzi;SpMAD_Dzi;LogEE_Dzi;VE1_Dzi;VE2_Dzi;VE3_Dzi;VR1_Dzi;VR2_Dzi;VR3_Dzi;BertzCT;nBonds;nBondsO;nBondsS;nBondsKS;RNCG;RPCG;C1SP3;C2SP3;C3SP3;C4SP3;Xc-3d;Xc-4d;Xc-5d;Xc-6d;Xc-3dv;Xc-4dv;Xc-5dv;Xc-6dv;Xpc-4d;Xpc-5d;Xpc-6d;Xpc-4dv;Xpc-5dv;Xpc-6dv;Xp-0d;Xp-1d;Xp-2d;Xp-3d;Xp-4d;Xp-5d;Xp-6d;Xp-7d;AXp-0d;AXp-1d;Xp-0dv;Xp-1dv;Xp-2dv;Xp-3dv;Xp-4dv;Xp-5dv;Xp-6dv;Xp-7dv;AXp-0dv;AXp-1dv;SZ;Sm;Sv;Sse;Spe;Sare;Sp;Si;MZ;Mm;Mv;Mse;Mpe;Mare;Mp;Mi;SpAbs_D;SpMax_D;SpDiam_D;SpAD_D;SpMAD_D;LogEE_D;VE1_D;VE2_D;VE3_D;VR1_D;VR2_D;VR3_D;NsCH3;NssCH2;NsssCH;NssssC;SsCH3;SssCH2;SsssCH;SssssC;MAXsCH3;MINsCH3;ECIndex;ETA_alpha;ETA_shape_p;ETA_shape_y;ETA_shape_x;ETA_beta;AETA_beta;ETA_beta_s;AETA_beta_s;ETA_eta;AETA_eta;ETA_eta_L;AETA_eta_L;ETA_eta_R;AETA_eta_R;ETA_eta_RL;AETA_eta_RL;ETA_eta_B;AETA_eta_B;ETA_eta_BR;AETA_eta_BR;ETA_epsilon_1;ETA_epsilon_2;ETA_epsilon_3;ETA_epsilon_4;ETA_epsilon_5;ETA_dBeta;AETA_dBeta;ETA_psi_1;ETA_dPsi_B;fragCpx;IC0;IC1;IC2;IC3;IC4;IC5;TIC0;TIC1;TIC2;TIC3;TIC4;TIC5;SIC0;SIC1;SIC2;SIC3;SIC4;SIC5;BIC0;BIC1;BIC2;BIC3;BIC4;BIC5;CIC0;CIC1;CIC2;CIC3;CIC4;CIC5;MIC0;MIC1;MIC2;MIC3;MIC4;MIC5;ZMIC0;ZMIC1;ZMIC2;ZMIC3;ZMIC4;ZMIC5;Kier1;Lipinski;GhoseFilter;FilterItLogS;VMcGowan;LabuteASA;PEOE_VSA6;PEOE_VSA7;SMR_VSA4;SMR_VSA5;SlogP_VSA4;SlogP_VSA5;EState_VSA3;EState_VSA4;EState_VSA5;EState_VSA7;EState_VSA8;VSA_EState4;VSA_EState5;VSA_EState7;VSA_EState8;MDEC-11;MID;AMID;MID_C;AMID_C;MPC2;MPC3;MPC4;MPC5;MPC6;MPC7;MPC8;MPC9;MPC10;TMPC10;piPC1;piPC2;piPC3;piPC4;piPC5;piPC6;piPC7;piPC8;piPC9;piPC10;TpiPC10;apol;bpol;nRot;RotRatio;SLogP;SMR;GGI1;GGI2;GGI3;GGI4;GGI5;GGI6;GGI7;GGI8;GGI9;GGI10;JGI1;JGI2;JGI3;JGI4;JGI5;JGI6;JGI7;JGI8;JGI9;JGI10;JGT10;Diameter;Radius;TopoShapeIndex;PetitjeanIndex;Vabc;VAdjMat;MWC01;MWC02;MWC03;MWC04;MWC05;MWC06;MWC07;MWC08;MWC09;MWC10;TMWC10;SRW02;SRW04;SRW06;SRW08;SRW10;TSRW10;MW;AMW;WPath;WPol;Zagreb1;Zagreb2;mZagreb1;mZagreb2
137.0;CCCCC(C)(C)CC;3,3-dimethylheptane;BVAKDOXCVSMKHE-UHFFFAOYSA-N;10.094308287448325;2.1646117279250796;4.329223455850158;10.094308287448325;1.1215898097164805;3.0292773665001764;2.6517094635736216;0.2946343848415135;0.8698439969590733;30.30953538105757;3.367726153450841;3.3061018463949434;29.0;9.0;20.0;9.0;36.0;36.0;31.0;22.0;14.0;6.0;1.0;0.0;0.0;56.0;64.0;119.0;124.0;121.0;96.0;51.0;36.0;9.0;46.5625;55.25;85.375;116.875;127.25;95.25;67.0;42.0;9.0;344.0;408.0;544.0;572.0;455.0;322.0;190.0;66.0;9.0;1318.6983689999995;1396.2547279999997;1797.896698;1707.1461199999997;1229.1449569999997;890.1513639999998;432.97346499999986;103.12444799999999;9.144576;4433.327004362572;5682.867541405011;7945.134186762703;9058.221222916061;7938.51191908008;5648.125410971521;3631.5648393812057;1620.9320311510196;279.75369987837234;202.2339240000001;202.67676799999998;382.19428;507.86921599999994;623.940404;495.799312;311.934628;244.25971199999998;60.466176;155.32250000000002;164.22;299.54499999999996;395.66;473.1725;372.07000000000005;236.40250000000003;178.86;43.56000000000001;153.05;160.0;293.94000000000005;388.8;467.73;368.64;233.73000000000002;178.20000000000002;43.56000000000001;33.992358096980006;44.5820862;66.182047157584;80.19940773697999;77.15599030790301;56.105768443054004;37.068358726678;20.019653005469998;4.001516143640999;4839.50224529498;4076.8058029780004;8514.057329249184;11450.09998857258;15143.758238679904;12382.085467159255;7563.678750307277;6466.26484700487;1664.2588682182407;1.2413793103448276;1.2857142857142858;0.5740740740740741;0.3055555555555556;1.9310344827586208;2.2857142857142856;2.2037037037037037;1.7222222222222223;1.605603448275862;1.9732142857142858;1.5810185185185186;1.6232638888888888;11.862068965517242;14.571428571428571;10.074074074074074;7.944444444444445;45.47235755172412;49.86624028571428;33.294383296296296;23.710362777777775;152.8733449780197;202.95955505017898;147.1321145696797;125.80862809605641;6.9735835862068996;7.238455999999999;7.077671851851852;7.05373911111111;5.35594827586207;5.865;5.547129629629629;5.495277777777778;5.277586206896552;5.714285714285714;5.443333333333334;5.4;1.172150279206207;1.5922173642857143;1.2255934658811851;1.113880663013611;166.8793877687924;145.6002072492143;157.66772831942933;159.02916650795248;0.04009120701381986;-0.008315074566549683;0.003194987258585434;-0.01977371884190785;-0.007393041541746574;0.012966976580224821;-0.013650372140969107;0.008144855583127922;0.004779784162325105;27.172413793103445;9.2128418549346;-12.148632580261593;-15.669441141498217;-1.638525564803805;-1.8763376932223532;-1.8537455410225923;7.648038049940547;2.7395957193816884;11.310344827586206;2.872770511296076;-6.336504161712249;-3.391200951248514;-0.9976218787158144;-1.5980975029726512;1.1736028537455419;2.097502972651606;0.5243757431629015;3.7155172413793114;-1.837395957193816;1.0642092746730083;-1.009215219976218;-1.4166914387633773;1.9800089179548148;-1.4357164090368608;0.3790130796670623;0.418029131985731;155.17241379310346;-11.89060642092749;7.6099881093935515;-92.15219976218788;-30.70749108204518;40.60642092746731;-52.85374554102259;40.13079667063022;21.670630202140316;751.4441937931032;-57.5819305588583;36.852435557669565;-446.2599618311532;-148.70533566825216;196.6422928585016;-255.95168133412605;194.33901563614722;104.94306844351955;1397.342566174485;-107.07605871068859;68.52867757484046;-829.8394550078362;-276.52392162035324;365.66474049700145;-475.95308096901056;361.38169814857395;195.1461170002299;0.14720275862068946;-0.01127990487514695;0.007219139120096425;-0.08741926278240043;-0.029130354340072016;0.03852087514863123;-0.050139177170035965;0.03806967895362513;0.02055762663495786;0.7603448275862053;-0.05826397146254696;0.03728894173602654;-0.45154577883472163;-0.15046670630202008;0.19897146254459133;-0.2589833531510097;0.19664090368608977;0.10618608799048804;0.5586206896551719;-0.04280618311534081;0.027395957193815337;-0.3317479191438776;-0.11054696789536171;0.14618311533888367;-0.1902734839476807;0.14447086801427028;0.07801426872770562;6.246771423200688;-0.47867980254411097;0.30635507362823544;-3.7097684697168813;-1.236190590070176;1.6346915256881471;-2.127731722308588;1.6155443335863824;0.8723939401366471;33.932561514511;-2.6001962846370503;1.6641256221674396;-20.151521205935808;-6.715006905074606;8.879670312035023;-11.557872485210794;8.775662460649563;4.738857728750731;0.0013824554142696504;-0.00029696694880534583;5.9166430714545073e-05;-0.00027463498391538683;0.9369797859690843;0.3290300662476643;-0.22497467741225172;-0.217631126965253;0.3900118906064209;0.10259894683200273;-0.11734266966133794;-0.04710001321178492;0.12812128418549348;-0.06562128418549343;0.019707579160611263;-0.014016878055225251;5.35077288941736;-0.42466451503312463;0.14092570572951021;-1.2798916633637205;25.911868751486317;-2.0564975199592253;0.6824525103272142;-6.198055025432684;48.184226419809825;-3.8241449539531636;1.2690495847192678;-11.525547986219948;0.005075957193816878;-0.0004028537455409625;0.00013368776148326713;-0.0012141564275333393;0.026218787158145008;-0.0020808561236623914;0.0006905359580745655;-0.006271469150482245;0.01926278240190248;-0.0015287922541193147;0.0005073325406262099;-0.004607609988109411;0.2154059111448513;-0.017095707233718248;0.0056732421042265824;-0.05152456207940113;1.1700883280865861;-0.09286415302275179;0.03081714115124888;-0.2798822389713307;-0.21481123061189872;0.042798075152248316;-0.19865738965655985;0.3511602610587382;-0.24010622297424328;-0.2322687535250987;-0.5121809744779579;0.1538197129844461;-0.10940319670018035;-0.0793650793650795;0.026337448559670684;-0.23919753086419754;-0.07936507936507912;0.026337448559670882;-0.2391975308641975;-0.07936507936507942;0.026337448559670712;-0.23919753086419765;-0.07936507936506763;0.02633744855967556;-0.23919753086419385;-0.07936507936508276;0.026337448559669425;-0.2391975308641986;-0.07936507936508302;0.02633744855966932;-0.23919753086419865;-0.07936507936507886;0.026337448559670996;-0.23919753086419737;-0.07936507936508522;0.02633744855966841;-0.23919753086419943;1.7484212387240001;1.021761909807147;1.3039760992616225;1.3248730964467008;2.270821583004324;1.4025662718556122;2.119489559164733;0.6977743404657556;1.210202371745295;1.6111111111111112;1.1695473251028807;1.378395061728395;1.6111111111111116;1.1695473251028812;1.3783950617283955;1.6111111111111116;1.1695473251028812;1.3783950617283955;1.6111111111111116;1.1695473251028812;1.378395061728395;1.6111111111111112;1.169547325102881;1.3783950617283953;1.6111111111111107;1.1695473251028803;1.3783950617283947;1.6111111111111112;1.1695473251028807;1.3783950617283953;1.611111111111111;1.1695473251028807;1.378395061728395;0.22014702692241572;-0.23672178944262834;4.017985897894896;0.987144382353546;4.017985897894896;0.987144382353546;2.0370867777089345;1.158922759508305;6.2295415111656585;5.775673613350089;12.240541511165654;11.786673613350088;20.80906778728115;20.355199889465595;2.9755415111656545;2.5216736133500834;2.779541511165659;2.3256736133500837;2.729541511165655;2.275673613350084;1.8995415111656564;1.4456736133500865;11.489841511165643;11.03597361335007;3.330074215693167;45.354484228625296;22.677242114312648;34.0360595293408;45.354484228625296;5.039387136513922;22.677242114775247;2.9482383284963576;0.3275820364995953;0.9758472995319325;27.11844364331171;3.013160404812412;3.194853557984135;45.354484228625296;22.677242114312648;34.0360595293408;45.354484228625296;5.039387136513922;22.677242114775247;2.9482383284963576;0.3275820364995953;0.9758472995319325;27.11844364331171;3.013160404812412;3.194853557984135;45.354484228625296;22.677242114312648;34.0360595293408;45.354484228625296;5.039387136513922;22.677242114775247;2.9482383284963576;0.3275820364995953;0.9758472995319325;27.11844364331171;3.013160404812412;3.194853557984135;45.354484228625296;22.677242114312648;34.0360595293408;45.354484228625296;5.039387136513922;22.677242114775247;2.9482383284963576;0.3275820364995953;0.9758472995319325;27.11844364331171;3.013160404812412;3.194853557984135;45.354484228625296;22.677242114312648;34.0360595293408;45.354484228625296;5.039387136513922;22.677242114775247;2.9482383284963576;0.3275820364995953;0.9758472995319325;27.11844364331171;3.013160404812412;3.194853557984135;45.354484228625296;22.677242114312648;34.0360595293408;45.354484228625296;5.039387136513922;22.677242114775247;2.9482383284963576;0.3275820364995953;0.9758472995319325;27.11844364331171;3.013160404812412;3.194853557984135;45.354484228625296;22.677242114312648;34.0360595293408;45.354484228625296;5.039387136513922;22.677242114775247;2.9482383284963576;0.3275820364995953;0.9758472995319325;27.11844364331171;3.013160404812412;3.194853557984135;45.354484228625296;22.677242114312648;34.0360595293408;45.354484228625296;5.039387136513922;22.677242114775247;2.9482383284963576;0.3275820364995953;0.9758472995319325;27.11844364331171;3.013160404812412;3.194853557984135;62.43856189774725;28.0;8.0;28.0;28.0;0.13231865348921906;0.0550479232918891;4.0;4.0;0.0;1.0;1.2071067811865475;0.25;0.0;0.0;1.2071067811865475;0.25;0.0;0.0;1.4571067811865475;1.2071067811865475;0.9785533905932737;1.4571067811865475;1.2071067811865475;0.9785533905932737;7.32842712474619;4.121320343559643;3.6213203435596433;2.164213562373095;0.8321067811865475;0.6035533905932737;0.125;0.0;0.8142696805273544;0.5151650429449554;7.32842712474619;4.121320343559643;3.6213203435596433;2.164213562373095;0.8321067811865475;0.6035533905932737;0.125;0.0;0.8142696805273544;0.5151650429449554;12.33333333333333;10.678461410373828;14.418278037858745;27.87836853605244;26.254901960784316;26.599999999999998;16.985544910179645;33.15289645924176;0.425287356321839;0.3682228072542699;0.49718200130547396;0.9613230529673256;0.9053414469235971;0.9172413793103448;0.5857084451786084;1.1432033261807504;45.354484228625296;22.677242114312648;34.0360595293408;45.354484228625296;5.039387136513922;22.677242114775247;2.9482383284963576;0.3275820364995953;0.9758472995319325;27.11844364331171;3.013160404812412;3.194853557984135;4.0;4.0;0.0;1.0;9.22888888888889;5.427847222222223;0.0;0.5932638888888889;2.349861111111111;2.2556944444444444;72.0;4.5;0.4444444444444444;0.0;0.1111111111111111;4.0;0.4444444444444444;4.0;0.4444444444444444;10.839696961967;1.204410773551889;4.121320343559643;0.4579244826177381;10.839696961967;1.204410773551889;4.121320343559643;0.4579244826177381;0.2928932188134521;0.032543690979272455;0.2928932188134521;0.032543690979272455;0.4241379310344827;0.7;0.4241379310344827;0.4241379310344827;0.7;-4.0;-0.4444444444444444;0.7142857142857143;0.00028571428571433355;8.0;0.8935711016541907;1.3256167917569774;2.4090309948291626;3.443513753449852;3.6504103051739905;3.6504103051739905;25.91356194797153;38.44288696095234;69.86189885004572;99.8618988500457;105.86189885004572;105.86189885004572;0.18393878085369605;0.27287401763953717;0.4958913995845924;0.7088363986815935;0.7514253985009939;0.7514253985009939;0.18587583320595183;0.27574764361055293;0.5011136131796297;0.716301128017398;0.7593386309849518;0.7593386309849518;3.9644098934733814;3.5323642033705944;2.4489500002984093;1.4144672416777198;1.2075706899535814;1.2075706899535814;6.664965218283638;11.854266002108208;17.499313036046345;19.300899242942897;19.50945096708083;19.50945096708083;35.68332320783173;27.32073783211528;21.832688431125487;18.00040597233527;17.210256562014045;17.210256562014045;9.0;1.0;0.0;-3.056954700395046;137.67000000000004;59.658787943002416;46.95741366754052;11.83581209232279;5.41499046939678;53.378235290466534;5.41499046939678;53.378235290466534;5.41499046939678;0.0;25.683286491704038;0.0;27.694948798762496;0.5932638888888889;0.0;5.427847222222223;9.22888888888889;1.6078935375323395;16.42523899182265;1.825026554646961;16.42523899182265;1.825026554646961;10.0;8.0;5.0;4.0;1.0;0.0;0.0;0.0;0.0;45.0;2.1972245773362196;2.3978952727983707;2.1972245773362196;1.791759469228055;1.6094379124341003;0.6931471805599453;0.0;0.0;0.0;0.0;3.828641396489095;28.365859999999998;20.06414;4.0;0.5;3.6128000000000027;43.59700000000001;3.0;1.1111111111111116;0.375;0.24000000000000005;0.05555555555555555;0.0;0.0;0.0;0.0;0.0;0.375;0.11111111111111116;0.046875;0.04800000000000001;0.013888888888888888;0.0;0.0;0.0;0.0;0.0;0.594875;6.0;3.0;1.0;0.5;164.22032596245742;4.0;8.0;3.6109179126442243;4.290459441148391;5.093750200806762;5.808142489980444;6.618738983517219;7.3427791893318455;8.155649270366002;8.883085524404578;9.696770838907451;76.50029385110692;2.833213344056216;4.04305126783455;5.4510384535657;6.932447891572509;8.446126742982377;36.70587770001135;128.15650064;4.419189677241379;98.0;8.0;36.0;36.0;5.0625;2.25