boiling_point;SMILES;IUPAC_name;InChIKey;SpAbs_A;SpMax_A;SpDiam_A;SpAD_A;SpMAD_A;LogEE_A;VE1_A;VE2_A;VE3_A;VR1_A;VR2_A;VR3_A;nAtom;nHeavyAtom;nH;nC;ATS0dv;ATS1dv;ATS2dv;ATS3dv;ATS4dv;ATS5dv;ATS6dv;ATS7dv;ATS8dv;ATS0d;ATS1d;ATS2d;ATS3d;ATS4d;ATS5d;ATS6d;ATS7d;ATS8d;ATS0s;ATS1s;ATS2s;ATS3s;ATS4s;ATS5s;ATS6s;ATS7s;ATS8s;ATS0Z;ATS1Z;ATS2Z;ATS3Z;ATS4Z;ATS5Z;ATS6Z;ATS7Z;ATS8Z;ATS0m;ATS1m;ATS2m;ATS3m;ATS4m;ATS5m;ATS6m;ATS7m;ATS8m;ATS0v;ATS1v;ATS2v;ATS3v;ATS4v;ATS5v;ATS6v;ATS7v;ATS8v;ATS0se;ATS1se;ATS2se;ATS3se;ATS4se;ATS5se;ATS6se;ATS7se;ATS8se;ATS0pe;ATS1pe;ATS2pe;ATS3pe;ATS4pe;ATS5pe;ATS6pe;ATS7pe;ATS8pe;ATS0are;ATS1are;ATS2are;ATS3are;ATS4are;ATS5are;ATS6are;ATS7are;ATS8are;ATS0p;ATS1p;ATS2p;ATS3p;ATS4p;ATS5p;ATS6p;ATS7p;ATS8p;ATS0i;ATS1i;ATS2i;ATS3i;ATS4i;ATS5i;ATS6i;ATS7i;ATS8i;AATS0dv;AATS1dv;AATS2dv;AATS3dv;AATS0d;AATS1d;AATS2d;AATS3d;AATS0s;AATS1s;AATS2s;AATS3s;AATS0Z;AATS1Z;AATS2Z;AATS3Z;AATS0m;AATS1m;AATS2m;AATS3m;AATS0v;AATS1v;AATS2v;AATS3v;AATS0se;AATS1se;AATS2se;AATS3se;AATS0pe;AATS1pe;AATS2pe;AATS3pe;AATS0are;AATS1are;AATS2are;AATS3are;AATS0p;AATS1p;AATS2p;AATS3p;AATS0i;AATS1i;AATS2i;AATS3i;ATSC0c;ATSC1c;ATSC2c;ATSC3c;ATSC4c;ATSC5c;ATSC6c;ATSC7c;ATSC8c;ATSC0dv;ATSC1dv;ATSC2dv;ATSC3dv;ATSC4dv;ATSC5dv;ATSC6dv;ATSC7dv;ATSC8dv;ATSC0d;ATSC1d;ATSC2d;ATSC3d;ATSC4d;ATSC5d;ATSC6d;ATSC7d;ATSC8d;ATSC0s;ATSC1s;ATSC2s;ATSC3s;ATSC4s;ATSC5s;ATSC6s;ATSC7s;ATSC8s;ATSC0Z;ATSC1Z;ATSC2Z;ATSC3Z;ATSC4Z;ATSC5Z;ATSC6Z;ATSC7Z;ATSC8Z;ATSC0m;ATSC1m;ATSC2m;ATSC3m;ATSC4m;ATSC5m;ATSC6m;ATSC7m;ATSC8m;ATSC0v;ATSC1v;ATSC2v;ATSC3v;ATSC4v;ATSC5v;ATSC6v;ATSC7v;ATSC8v;ATSC0se;ATSC1se;ATSC2se;ATSC3se;ATSC4se;ATSC5se;ATSC6se;ATSC7se;ATSC8se;ATSC0pe;ATSC1pe;ATSC2pe;ATSC3pe;ATSC4pe;ATSC5pe;ATSC6pe;ATSC7pe;ATSC8pe;ATSC0are;ATSC1are;ATSC2are;ATSC3are;ATSC4are;ATSC5are;ATSC6are;ATSC7are;ATSC8are;ATSC0p;ATSC1p;ATSC2p;ATSC3p;ATSC4p;ATSC5p;ATSC6p;ATSC7p;ATSC8p;ATSC0i;ATSC1i;ATSC2i;ATSC3i;ATSC4i;ATSC5i;ATSC6i;ATSC7i;ATSC8i;AATSC0c;AATSC1c;AATSC2c;AATSC3c;AATSC0dv;AATSC1dv;AATSC2dv;AATSC3dv;AATSC0d;AATSC1d;AATSC2d;AATSC3d;AATSC0s;AATSC1s;AATSC2s;AATSC3s;AATSC0Z;AATSC1Z;AATSC2Z;AATSC3Z;AATSC0m;AATSC1m;AATSC2m;AATSC3m;AATSC0v;AATSC1v;AATSC2v;AATSC3v;AATSC0se;AATSC1se;AATSC2se;AATSC3se;AATSC0pe;AATSC1pe;AATSC2pe;AATSC3pe;AATSC0are;AATSC1are;AATSC2are;AATSC3are;AATSC0p;AATSC1p;AATSC2p;AATSC3p;AATSC0i;AATSC1i;AATSC2i;AATSC3i;MATS1c;MATS2c;MATS3c;MATS1dv;MATS2dv;MATS3dv;MATS1s;MATS2s;MATS3s;MATS1Z;MATS2Z;MATS3Z;MATS1m;MATS2m;MATS3m;MATS1v;MATS2v;MATS3v;MATS1se;MATS2se;MATS3se;MATS1pe;MATS2pe;MATS3pe;MATS1are;MATS2are;MATS3are;MATS1p;MATS2p;MATS3p;MATS1i;MATS2i;MATS3i;GATS1c;GATS2c;GATS3c;GATS1dv;GATS2dv;GATS3dv;GATS1s;GATS2s;GATS3s;GATS1Z;GATS2Z;GATS3Z;GATS1m;GATS2m;GATS3m;GATS1v;GATS2v;GATS3v;GATS1se;GATS2se;GATS3se;GATS1pe;GATS2pe;GATS3pe;GATS1are;GATS2are;GATS3are;GATS1p;GATS2p;GATS3p;GATS1i;GATS2i;GATS3i;BCUTc-1h;BCUTc-1l;BCUTdv-1h;BCUTdv-1l;BCUTd-1h;BCUTd-1l;BCUTs-1h;BCUTs-1l;BCUTZ-1h;BCUTZ-1l;BCUTm-1h;BCUTm-1l;BCUTv-1h;BCUTv-1l;BCUTse-1h;BCUTse-1l;BCUTpe-1h;BCUTpe-1l;BCUTare-1h;BCUTare-1l;BCUTp-1h;BCUTp-1l;BCUTi-1h;BCUTi-1l;BalabanJ;SpAbs_DzZ;SpMax_DzZ;SpDiam_DzZ;SpAD_DzZ;SpMAD_DzZ;LogEE_DzZ;VE1_DzZ;VE2_DzZ;VE3_DzZ;VR1_DzZ;VR2_DzZ;VR3_DzZ;SpAbs_Dzm;SpMax_Dzm;SpDiam_Dzm;SpAD_Dzm;SpMAD_Dzm;LogEE_Dzm;VE1_Dzm;VE2_Dzm;VE3_Dzm;VR1_Dzm;VR2_Dzm;VR3_Dzm;SpAbs_Dzv;SpMax_Dzv;SpDiam_Dzv;SpAD_Dzv;SpMAD_Dzv;LogEE_Dzv;VE1_Dzv;VE2_Dzv;VE3_Dzv;VR1_Dzv;VR2_Dzv;VR3_Dzv;SpAbs_Dzse;SpMax_Dzse;SpDiam_Dzse;SpAD_Dzse;SpMAD_Dzse;LogEE_Dzse;VE1_Dzse;VE2_Dzse;VE3_Dzse;VR1_Dzse;VR2_Dzse;VR3_Dzse;SpAbs_Dzpe;SpMax_Dzpe;SpDiam_Dzpe;SpAD_Dzpe;SpMAD_Dzpe;LogEE_Dzpe;VE1_Dzpe;VE2_Dzpe;VE3_Dzpe;VR1_Dzpe;VR2_Dzpe;VR3_Dzpe;SpAbs_Dzare;SpMax_Dzare;SpDiam_Dzare;SpAD_Dzare;SpMAD_Dzare;LogEE_Dzare;VE1_Dzare;VE2_Dzare;VE3_Dzare;VR1_Dzare;VR2_Dzare;VR3_Dzare;SpAbs_Dzp;SpMax_Dzp;SpDiam_Dzp;SpAD_Dzp;SpMAD_Dzp;LogEE_Dzp;VE1_Dzp;VE2_Dzp;VE3_Dzp;VR1_Dzp;VR2_Dzp;VR3_Dzp;SpAbs_Dzi;SpMax_Dzi;SpDiam_Dzi;SpAD_Dzi;SpMAD_Dzi;LogEE_Dzi;VE1_Dzi;VE2_Dzi;VE3_Dzi;VR1_Dzi;VR2_Dzi;VR3_Dzi;BertzCT;nBonds;nBondsO;nBondsS;nBondsKS;RNCG;RPCG;C1SP3;C2SP3;C3SP3;C4SP3;Xc-3d;Xc-4d;Xc-5d;Xc-6d;Xc-3dv;Xc-4dv;Xc-5dv;Xc-6dv;Xpc-4d;Xpc-5d;Xpc-6d;Xpc-4dv;Xpc-5dv;Xpc-6dv;Xp-0d;Xp-1d;Xp-2d;Xp-3d;Xp-4d;Xp-5d;Xp-6d;Xp-7d;AXp-0d;AXp-1d;Xp-0dv;Xp-1dv;Xp-2dv;Xp-3dv;Xp-4dv;Xp-5dv;Xp-6dv;Xp-7dv;AXp-0dv;AXp-1dv;SZ;Sm;Sv;Sse;Spe;Sare;Sp;Si;MZ;Mm;Mv;Mse;Mpe;Mare;Mp;Mi;SpAbs_D;SpMax_D;SpDiam_D;SpAD_D;SpMAD_D;LogEE_D;VE1_D;VE2_D;VE3_D;VR1_D;VR2_D;VR3_D;NsCH3;NssCH2;NsssCH;NssssC;SsCH3;SssCH2;SsssCH;SssssC;MAXsCH3;MINsCH3;ECIndex;ETA_alpha;ETA_shape_p;ETA_shape_y;ETA_shape_x;ETA_beta;AETA_beta;ETA_beta_s;AETA_beta_s;ETA_eta;AETA_eta;ETA_eta_L;AETA_eta_L;ETA_eta_R;AETA_eta_R;ETA_eta_RL;AETA_eta_RL;ETA_eta_B;AETA_eta_B;ETA_eta_BR;AETA_eta_BR;ETA_epsilon_1;ETA_epsilon_2;ETA_epsilon_3;ETA_epsilon_4;ETA_epsilon_5;ETA_dBeta;AETA_dBeta;ETA_psi_1;ETA_dPsi_B;fragCpx;IC0;IC1;IC2;IC3;IC4;IC5;TIC0;TIC1;TIC2;TIC3;TIC4;TIC5;SIC0;SIC1;SIC2;SIC3;SIC4;SIC5;BIC0;BIC1;BIC2;BIC3;BIC4;BIC5;CIC0;CIC1;CIC2;CIC3;CIC4;CIC5;MIC0;MIC1;MIC2;MIC3;MIC4;MIC5;ZMIC0;ZMIC1;ZMIC2;ZMIC3;ZMIC4;ZMIC5;Kier1;Lipinski;GhoseFilter;FilterItLogS;VMcGowan;LabuteASA;PEOE_VSA6;PEOE_VSA7;SMR_VSA4;SMR_VSA5;SlogP_VSA4;SlogP_VSA5;EState_VSA3;EState_VSA4;EState_VSA5;EState_VSA7;EState_VSA8;VSA_EState4;VSA_EState5;VSA_EState7;VSA_EState8;MDEC-11;MID;AMID;MID_C;AMID_C;MPC2;MPC3;MPC4;MPC5;MPC6;MPC7;MPC8;MPC9;MPC10;TMPC10;piPC1;piPC2;piPC3;piPC4;piPC5;piPC6;piPC7;piPC8;piPC9;piPC10;TpiPC10;apol;bpol;nRot;RotRatio;SLogP;SMR;GGI1;GGI2;GGI3;GGI4;GGI5;GGI6;GGI7;GGI8;GGI9;GGI10;JGI1;JGI2;JGI3;JGI4;JGI5;JGI6;JGI7;JGI8;JGI9;JGI10;JGT10;Diameter;Radius;TopoShapeIndex;PetitjeanIndex;Vabc;VAdjMat;MWC01;MWC02;MWC03;MWC04;MWC05;MWC06;MWC07;MWC08;MWC09;MWC10;TMWC10;SRW02;SRW04;SRW06;SRW08;SRW10;TSRW10;MW;AMW;WPath;WPol;Zagreb1;Zagreb2;mZagreb1;mZagreb2
115.6;CCCC(C)C(C)C;2,3-dimethylhexane;JXPOLSKBTUYKJB-UHFFFAOYSA-N;8.64705294709901;2.0743132930519415;4.148626586103885;8.64705294709901;1.0808816183873762;2.9003098022693616;2.591794957933863;0.3239743697417329;0.7292071183114026;21.298449585108433;2.662306198138554;2.8354907293203615;26.0;8.0;18.0;8.0;30.0;30.0;26.0;17.0;8.0;2.0;0.0;0.0;0.0;48.0;56.0;100.0;107.0;96.0;75.0;36.0;18.0;0.0;42.05555555555556;49.69444444444444;75.33333333333333;99.0;106.33333333333331;84.0;48.0;18.0;0.0;306.0;360.0;458.0;478.0;382.0;233.0;96.0;18.0;0.0;1172.4021199999997;1227.7764309999998;1483.122152;1443.8432469999998;1023.2436519999998;572.328626;169.67059199999997;18.289152;0.0;3947.6426137513827;5029.877406914644;6806.459661661146;7549.505646323407;6651.959874246581;4416.199652577174;2122.84926278855;559.5073997567447;0.0;181.25648000000004;180.90098799999998;339.441056;442.589308;500.589328;432.89069600000005;246.65472;120.932352;0.0;139.14000000000001;146.4975;265.64;342.73749999999995;381.31;323.645;183.48000000000002;87.12;0.0;137.12;142.75;260.76;337.23;376.56000000000006;320.94;182.16000000000003;87.12;0.0;30.314232287281996;39.56609758;57.487932727886005;67.164290446678;64.132945304866;46.077815298809;24.033241436376;8.003032287282;0.0;4342.872585156481;3643.7663514622;7584.388217594887;10161.91545940208;12000.544215423066;10897.66339943221;6275.494221136776;3328.5177364364813;0.0;1.1538461538461537;1.2;0.5416666666666666;0.2698412698412698;1.8461538461538463;2.24;2.0833333333333335;1.6984126984126984;1.6175213675213675;1.9877777777777776;1.5694444444444444;1.5714285714285714;11.76923076923077;14.4;9.541666666666666;7.587301587301587;45.09238923076922;49.111057239999994;30.898378166666664;22.918146777777775;151.83240822120703;201.19509627658576;141.80124295127388;119.8334229575144;6.971403076923078;7.236039519999999;7.071688666666667;7.0252271111111115;5.351538461538462;5.8599;5.534166666666667;5.440277777777777;5.273846153846154;5.71;5.4325;5.352857142857143;1.1659320110493074;1.5826439032;1.1976652651642918;1.0660998483599682;167.03356096755698;145.750654058488;158.00808786656015;161.3002453873346;0.03655543109853881;-0.007234861897646258;-0.0032823875928289824;-0.0069620607899884245;-0.01149791367684741;0.004528474131657795;-0.0034974142795132215;0.009668448555897099;0.0;22.461538461538467;7.094674556213022;-8.54437869822485;-13.195266272189349;-6.662721893491126;0.8816568047337259;3.9763313609467446;5.218934911242604;0.0;8.615384615384617;2.7928994082840233;-4.520710059171599;-4.337278106508876;-1.7041420118343187;0.5857988165680487;1.9171597633136106;0.9585798816568053;0.0;3.4871794871794872;-1.724852071005916;0.38264299802761387;0.018244575936884264;-1.2209072978303745;0.851577909270216;-0.9053254437869825;0.8550295857988157;0.0;138.46153846153845;-11.98224852071005;-9.467455621301767;-45.11834319526626;-52.662721893491124;14.497041420118336;-7.1005917159763365;42.603550295857985;0.0;670.5194344615384;-58.02572028994065;-45.84748269822464;-218.49190973372765;-255.02662250887576;70.2039578816566;-34.385612023668756;206.31367214201168;0.0;1246.8595205864642;-107.90130466613648;-85.25535183497206;-406.2950360885381;-474.23289458203124;130.54725749730088;-63.941513876228825;383.64908325737366;0.0;0.13135015384615373;-0.01136684023668524;-0.008981207100590853;-0.04280106508875671;-0.04995796449704151;0.013752473372780037;-0.006735905325444472;0.04041543195266192;0.0;0.6784615384615371;-0.05871301775148015;-0.04639053254437937;-0.22107988165680487;-0.25804733727810586;0.07103550295858063;-0.034792899408283354;0.20875739644970437;0.0;0.49846153846153785;-0.04313609467455702;-0.03408284023668703;-0.16242603550295887;-0.1895857988165677;0.05218934911242673;-0.025562130177514252;0.15337278106508914;0.0;5.574042193009846;-0.482369035933545;-0.38113109012033175;-1.8163278513547043;-2.120041688794343;0.5836069817467577;-0.28584831759024815;1.7150899055414912;0.0;30.278285659102124;-2.620236258960829;-2.0703101305369493;-9.86632171583994;-11.51610010111148;3.1701623873846847;-1.5527325979026303;9.316395587416082;0.0;0.0014059781191745695;-0.0002893944759058503;-6.83830748506038e-05;-0.00011050890142838768;0.8639053254437872;0.2837869822485209;-0.17800788954635105;-0.20944867098713252;0.33136094674556216;0.11171597633136093;-0.09418145956607499;-0.06884568423029962;0.1341222879684418;-0.06899408284023664;0.007971729125575288;0.0002895964434426074;5.325443786982248;-0.479289940828402;-0.19723865877712013;-0.7161641777026391;25.789209017751475;-2.321028811597626;-0.9551558895463467;-3.4681255513290106;47.9561354071717;-4.316052186645459;-1.7761531632285845;-6.4491275569609225;0.005051928994082836;-0.0004546736094674096;-0.00018710848126230945;-0.0006793819855358208;0.026094674556212966;-0.002348520710059206;-0.0009664694280079036;-0.0035092044707429344;0.01917159763313607;-0.0017254437869822809;-0.0007100591715976464;-0.002578191039729506;0.21438623819268637;-0.019294761437341802;-0.007940231044173579;-0.028830600815154036;1.1645494484270047;-0.10480945035843316;-0.043131461052853114;-0.15660828120380857;-0.2058314222384555;-0.04863736776412322;-0.07859930387342438;0.3284931506849317;-0.2060502283105022;-0.2424440095672972;-0.514411764705882;0.05943627450980399;0.0021591970121382638;-0.08999999999999993;-0.03703703703703701;-0.13447971781305113;-0.08999999999999975;-0.03703703703703687;-0.1344797178130511;-0.09000000000000012;-0.037037037037037104;-0.13447971781305118;-0.08999999999999098;-0.03703703703703352;-0.13447971781304913;-0.09000000000000151;-0.03703703703703765;-0.13447971781305149;-0.0900000000000018;-0.03703703703703778;-0.13447971781305157;-0.09000000000000014;-0.037037037037037084;-0.13447971781305115;-0.09000000000000234;-0.03703703703703797;-0.13447971781305168;1.7407104697458105;1.1099466014827315;1.1400629676758167;1.3356164383561642;1.9709617579908671;1.5016851489454228;2.1268382352941173;0.7716758578431373;1.0051937441643324;1.625;1.222511574074074;1.2180335097001764;1.6250000000000007;1.2225115740740744;1.2180335097001767;1.6249999999999998;1.2225115740740737;1.218033509700176;1.625;1.222511574074074;1.2180335097001762;1.6249999999999998;1.222511574074074;1.2180335097001764;1.6250000000000002;1.2225115740740742;1.2180335097001764;1.6250000000000002;1.2225115740740742;1.2180335097001764;1.6250000000000002;1.2225115740740742;1.2180335097001764;0.21495158442233114;-0.2213208602046911;3.113422273509682;0.987131928180929;3.113422273509682;0.987131928180929;2.038279498294959;1.1926947564830066;6.220139151039891;5.784659224243293;12.231139151039892;11.795659224243293;20.79966542715542;20.36418550035882;2.96613915103989;2.5306592242432933;2.7701391510398894;2.334659224243293;2.7201391510398936;2.2846592242432897;1.8901391510398897;1.4546592242432914;11.480439151039883;11.044959224243298;3.170819357347939;36.36295528246698;18.181477641233492;27.132867326985668;36.362955282466984;4.545369410308373;18.181477678914806;2.7815411939585353;0.3476926492448169;0.7998616090890344;22.382906006656988;2.7978632508321235;2.885153991516093;36.36295528246698;18.181477641233492;27.132867326985668;36.362955282466984;4.545369410308373;18.181477678914806;2.7815411939585353;0.3476926492448169;0.7998616090890344;22.382906006656988;2.7978632508321235;2.885153991516093;36.36295528246698;18.181477641233492;27.132867326985668;36.362955282466984;4.545369410308373;18.181477678914806;2.7815411939585353;0.3476926492448169;0.7998616090890344;22.382906006656988;2.7978632508321235;2.885153991516093;36.36295528246698;18.181477641233492;27.132867326985668;36.362955282466984;4.545369410308373;18.181477678914806;2.7815411939585353;0.3476926492448169;0.7998616090890344;22.382906006656988;2.7978632508321235;2.885153991516093;36.36295528246698;18.181477641233492;27.132867326985668;36.362955282466984;4.545369410308373;18.181477678914806;2.7815411939585353;0.3476926492448169;0.7998616090890344;22.382906006656988;2.7978632508321235;2.885153991516093;36.36295528246698;18.181477641233492;27.132867326985668;36.362955282466984;4.545369410308373;18.181477678914806;2.7815411939585353;0.3476926492448169;0.7998616090890344;22.382906006656988;2.7978632508321235;2.885153991516093;36.36295528246698;18.181477641233492;27.132867326985668;36.362955282466984;4.545369410308373;18.181477678914806;2.7815411939585353;0.3476926492448169;0.7998616090890344;22.382906006656988;2.7978632508321235;2.885153991516093;36.36295528246698;18.181477641233492;27.132867326985668;36.362955282466984;4.545369410308373;18.181477678914806;2.7815411939585353;0.3476926492448169;0.7998616090890344;22.382906006656988;2.7978632508321235;2.885153991516093;46.0;25.0;7.0;25.0;25.0;0.14662902157690308;0.06784688717776238;4.0;2.0;2.0;0.0;0.5690355937288492;0.0;0.23570226039551584;0.0;0.5690355937288492;0.0;0.23570226039551584;0.0;1.2071067811865475;0.6666666666666666;0.6666666666666666;1.2071067811865475;0.6666666666666666;0.6666666666666666;6.568914100752346;3.6807392125526213;3.0099759546438176;1.8820881233139906;0.7886751345948128;0.3333333333333333;0.0;0.0;0.8211142625940433;0.5258198875075173;6.568914100752346;3.6807392125526213;3.0099759546438176;1.8820881233139906;0.7886751345948128;0.3333333333333333;0.0;0.0;0.8211142625940433;0.5258198875075173;11.0;9.510615269336444;12.87645023407287;24.990531682447198;23.529411764705884;23.84;15.186990419161678;29.737606813317583;0.4230769230769231;0.36579289497447864;0.4952480859258796;0.9611742954787383;0.904977375565611;0.916923076923077;0.584115016121603;1.1437541082045224;36.36295528246698;18.181477641233492;27.132867326985668;36.362955282466984;4.545369410308373;18.181477678914806;2.7815411939585353;0.3476926492448169;0.7998616090890344;22.382906006656988;2.7978632508321235;2.885153991516093;4.0;2.0;2.0;0.0;9.160416666666666;2.7192592592592595;1.7869907407407404;0.0;2.3275462962962963;2.2488888888888887;54.0;4.0;0.5;0.25;0.0;3.5;0.4375;3.5;0.4375;9.012316946949195;1.1265396183686494;3.680739212552621;0.4600924015690776;9.012316946949195;1.1265396183686494;3.680739212552621;0.4600924015690776;0.2334743498204741;0.029184293727559263;0.2334743498204741;0.029184293727559263;0.4230769230769231;0.7;0.4230769230769231;0.4230769230769231;0.7;-3.5;-0.4375;0.7142857142857143;0.00028571428571433355;7.0;0.8904916402194913;1.3520301017579528;2.4783459677250406;3.1895084675586194;3.507380102423635;3.507380102423635;23.152782645706775;35.15278264570677;64.43699516085105;82.9272201565241;91.19188266301451;91.19188266301451;0.1894485821789581;0.2876390684343565;0.5272583239733931;0.6785553392481314;0.746181275102219;0.746181275102219;0.19175693730143042;0.29114383531836724;0.5336827555474465;0.6868232643770443;0.7552731951834579;0.7552731951834579;3.8099480779216;3.348409616383139;2.222093750416051;1.5109312505824724;1.193059615717457;1.193059615717457;6.654519640635535;12.198058102173997;16.39946037251864;18.282159371824143;18.60257397976808;18.60257397976808;31.72521615294554;23.41346490856623;20.30332595985392;17.270837203048348;16.510251923482805;16.510251923482805;8.0;1.0;0.0;-2.278202200549686;123.58000000000004;53.29384582860579;40.53659204461451;11.835812092322787;11.835812092322787;40.53659204461451;11.835812092322787;40.53659204461451;0.0;11.835812092322787;12.841643245852019;0.0;27.694948798762496;0.0;1.7869907407407404;2.7192592592592595;9.160416666666666;1.7203065102465214;14.496041347962493;1.8120051684953116;14.496041347962493;1.8120051684953116;8.0;7.0;4.0;2.0;0.0;0.0;0.0;0.0;0.0;36.0;2.0794415416798357;2.1972245773362196;2.0794415416798357;1.6094379124341003;1.0986122886681098;0.0;0.0;0.0;0.0;0.0;3.6109179126442243;25.362274;18.057726;3.0;0.42857142857142855;3.0786000000000016;38.91;2.0;1.1111111111111116;0.375;0.16000000000000003;0.0;0.0;0.0;0.0;0.0;0.0;0.2857142857142857;0.13888888888888895;0.05357142857142856;0.04000000000000001;0.0;0.0;0.0;0.0;0.0;0.0;0.5181746031746032;5.0;3.0;0.6666666666666666;0.4;146.92434073860016;3.807354922057604;7.0;3.4339872044851463;4.110873864173311;4.844187086458591;5.556828061699537;6.289715570908998;7.01301578963963;7.744569809354496;8.471568013389962;9.202207388745993;71.66695278885567;2.70805020110221;3.8501476017100584;5.176149732573829;6.577861357721047;8.011355109161286;34.323564002268434;114.14085057599999;4.3900327144615385;70.0;7.0;30.0;30.0;4.722222222222222;2.0277777777777777