boiling_point;SMILES;IUPAC_name;InChIKey;SpAbs_A;SpMax_A;SpDiam_A;SpAD_A;SpMAD_A;LogEE_A;VE1_A;VE2_A;VE3_A;VR1_A;VR2_A;VR3_A;nAtom;nHeavyAtom;nH;nC;ATS0dv;ATS1dv;ATS2dv;ATS3dv;ATS4dv;ATS5dv;ATS6dv;ATS7dv;ATS8dv;ATS0d;ATS1d;ATS2d;ATS3d;ATS4d;ATS5d;ATS6d;ATS7d;ATS8d;ATS0s;ATS1s;ATS2s;ATS3s;ATS4s;ATS5s;ATS6s;ATS7s;ATS8s;ATS0Z;ATS1Z;ATS2Z;ATS3Z;ATS4Z;ATS5Z;ATS6Z;ATS7Z;ATS8Z;ATS0m;ATS1m;ATS2m;ATS3m;ATS4m;ATS5m;ATS6m;ATS7m;ATS8m;ATS0v;ATS1v;ATS2v;ATS3v;ATS4v;ATS5v;ATS6v;ATS7v;ATS8v;ATS0se;ATS1se;ATS2se;ATS3se;ATS4se;ATS5se;ATS6se;ATS7se;ATS8se;ATS0pe;ATS1pe;ATS2pe;ATS3pe;ATS4pe;ATS5pe;ATS6pe;ATS7pe;ATS8pe;ATS0are;ATS1are;ATS2are;ATS3are;ATS4are;ATS5are;ATS6are;ATS7are;ATS8are;ATS0p;ATS1p;ATS2p;ATS3p;ATS4p;ATS5p;ATS6p;ATS7p;ATS8p;ATS0i;ATS1i;ATS2i;ATS3i;ATS4i;ATS5i;ATS6i;ATS7i;ATS8i;AATS0dv;AATS1dv;AATS2dv;AATS3dv;AATS0d;AATS1d;AATS2d;AATS3d;AATS0s;AATS1s;AATS2s;AATS3s;AATS0Z;AATS1Z;AATS2Z;AATS3Z;AATS0m;AATS1m;AATS2m;AATS3m;AATS0v;AATS1v;AATS2v;AATS3v;AATS0se;AATS1se;AATS2se;AATS3se;AATS0pe;AATS1pe;AATS2pe;AATS3pe;AATS0are;AATS1are;AATS2are;AATS3are;AATS0p;AATS1p;AATS2p;AATS3p;AATS0i;AATS1i;AATS2i;AATS3i;ATSC0c;ATSC1c;ATSC2c;ATSC3c;ATSC4c;ATSC5c;ATSC6c;ATSC7c;ATSC8c;ATSC0dv;ATSC1dv;ATSC2dv;ATSC3dv;ATSC4dv;ATSC5dv;ATSC6dv;ATSC7dv;ATSC8dv;ATSC0d;ATSC1d;ATSC2d;ATSC3d;ATSC4d;ATSC5d;ATSC6d;ATSC7d;ATSC8d;ATSC0s;ATSC1s;ATSC2s;ATSC3s;ATSC4s;ATSC5s;ATSC6s;ATSC7s;ATSC8s;ATSC0Z;ATSC1Z;ATSC2Z;ATSC3Z;ATSC4Z;ATSC5Z;ATSC6Z;ATSC7Z;ATSC8Z;ATSC0m;ATSC1m;ATSC2m;ATSC3m;ATSC4m;ATSC5m;ATSC6m;ATSC7m;ATSC8m;ATSC0v;ATSC1v;ATSC2v;ATSC3v;ATSC4v;ATSC5v;ATSC6v;ATSC7v;ATSC8v;ATSC0se;ATSC1se;ATSC2se;ATSC3se;ATSC4se;ATSC5se;ATSC6se;ATSC7se;ATSC8se;ATSC0pe;ATSC1pe;ATSC2pe;ATSC3pe;ATSC4pe;ATSC5pe;ATSC6pe;ATSC7pe;ATSC8pe;ATSC0are;ATSC1are;ATSC2are;ATSC3are;ATSC4are;ATSC5are;ATSC6are;ATSC7are;ATSC8are;ATSC0p;ATSC1p;ATSC2p;ATSC3p;ATSC4p;ATSC5p;ATSC6p;ATSC7p;ATSC8p;ATSC0i;ATSC1i;ATSC2i;ATSC3i;ATSC4i;ATSC5i;ATSC6i;ATSC7i;ATSC8i;AATSC0c;AATSC1c;AATSC2c;AATSC3c;AATSC0dv;AATSC1dv;AATSC2dv;AATSC3dv;AATSC0d;AATSC1d;AATSC2d;AATSC3d;AATSC0s;AATSC1s;AATSC2s;AATSC3s;AATSC0Z;AATSC1Z;AATSC2Z;AATSC3Z;AATSC0m;AATSC1m;AATSC2m;AATSC3m;AATSC0v;AATSC1v;AATSC2v;AATSC3v;AATSC0se;AATSC1se;AATSC2se;AATSC3se;AATSC0pe;AATSC1pe;AATSC2pe;AATSC3pe;AATSC0are;AATSC1are;AATSC2are;AATSC3are;AATSC0p;AATSC1p;AATSC2p;AATSC3p;AATSC0i;AATSC1i;AATSC2i;AATSC3i;MATS1c;MATS2c;MATS3c;MATS1dv;MATS2dv;MATS3dv;MATS1s;MATS2s;MATS3s;MATS1Z;MATS2Z;MATS3Z;MATS1m;MATS2m;MATS3m;MATS1v;MATS2v;MATS3v;MATS1se;MATS2se;MATS3se;MATS1pe;MATS2pe;MATS3pe;MATS1are;MATS2are;MATS3are;MATS1p;MATS2p;MATS3p;MATS1i;MATS2i;MATS3i;GATS1c;GATS2c;GATS3c;GATS1dv;GATS2dv;GATS3dv;GATS1s;GATS2s;GATS3s;GATS1Z;GATS2Z;GATS3Z;GATS1m;GATS2m;GATS3m;GATS1v;GATS2v;GATS3v;GATS1se;GATS2se;GATS3se;GATS1pe;GATS2pe;GATS3pe;GATS1are;GATS2are;GATS3are;GATS1p;GATS2p;GATS3p;GATS1i;GATS2i;GATS3i;BCUTc-1h;BCUTc-1l;BCUTdv-1h;BCUTdv-1l;BCUTd-1h;BCUTd-1l;BCUTs-1h;BCUTs-1l;BCUTZ-1h;BCUTZ-1l;BCUTm-1h;BCUTm-1l;BCUTv-1h;BCUTv-1l;BCUTse-1h;BCUTse-1l;BCUTpe-1h;BCUTpe-1l;BCUTare-1h;BCUTare-1l;BCUTp-1h;BCUTp-1l;BCUTi-1h;BCUTi-1l;BalabanJ;SpAbs_DzZ;SpMax_DzZ;SpDiam_DzZ;SpAD_DzZ;SpMAD_DzZ;LogEE_DzZ;VE1_DzZ;VE2_DzZ;VE3_DzZ;VR1_DzZ;VR2_DzZ;VR3_DzZ;SpAbs_Dzm;SpMax_Dzm;SpDiam_Dzm;SpAD_Dzm;SpMAD_Dzm;LogEE_Dzm;VE1_Dzm;VE2_Dzm;VE3_Dzm;VR1_Dzm;VR2_Dzm;VR3_Dzm;SpAbs_Dzv;SpMax_Dzv;SpDiam_Dzv;SpAD_Dzv;SpMAD_Dzv;LogEE_Dzv;VE1_Dzv;VE2_Dzv;VE3_Dzv;VR1_Dzv;VR2_Dzv;VR3_Dzv;SpAbs_Dzse;SpMax_Dzse;SpDiam_Dzse;SpAD_Dzse;SpMAD_Dzse;LogEE_Dzse;VE1_Dzse;VE2_Dzse;VE3_Dzse;VR1_Dzse;VR2_Dzse;VR3_Dzse;SpAbs_Dzpe;SpMax_Dzpe;SpDiam_Dzpe;SpAD_Dzpe;SpMAD_Dzpe;LogEE_Dzpe;VE1_Dzpe;VE2_Dzpe;VE3_Dzpe;VR1_Dzpe;VR2_Dzpe;VR3_Dzpe;SpAbs_Dzare;SpMax_Dzare;SpDiam_Dzare;SpAD_Dzare;SpMAD_Dzare;LogEE_Dzare;VE1_Dzare;VE2_Dzare;VE3_Dzare;VR1_Dzare;VR2_Dzare;VR3_Dzare;SpAbs_Dzp;SpMax_Dzp;SpDiam_Dzp;SpAD_Dzp;SpMAD_Dzp;LogEE_Dzp;VE1_Dzp;VE2_Dzp;VE3_Dzp;VR1_Dzp;VR2_Dzp;VR3_Dzp;SpAbs_Dzi;SpMax_Dzi;SpDiam_Dzi;SpAD_Dzi;SpMAD_Dzi;LogEE_Dzi;VE1_Dzi;VE2_Dzi;VE3_Dzi;VR1_Dzi;VR2_Dzi;VR3_Dzi;BertzCT;nBonds;nBondsO;nBondsS;nBondsKS;RNCG;RPCG;C1SP3;C2SP3;C3SP3;C4SP3;Xc-3d;Xc-4d;Xc-5d;Xc-6d;Xc-3dv;Xc-4dv;Xc-5dv;Xc-6dv;Xpc-4d;Xpc-5d;Xpc-6d;Xpc-4dv;Xpc-5dv;Xpc-6dv;Xp-0d;Xp-1d;Xp-2d;Xp-3d;Xp-4d;Xp-5d;Xp-6d;Xp-7d;AXp-0d;AXp-1d;Xp-0dv;Xp-1dv;Xp-2dv;Xp-3dv;Xp-4dv;Xp-5dv;Xp-6dv;Xp-7dv;AXp-0dv;AXp-1dv;SZ;Sm;Sv;Sse;Spe;Sare;Sp;Si;MZ;Mm;Mv;Mse;Mpe;Mare;Mp;Mi;SpAbs_D;SpMax_D;SpDiam_D;SpAD_D;SpMAD_D;LogEE_D;VE1_D;VE2_D;VE3_D;VR1_D;VR2_D;VR3_D;NsCH3;NssCH2;NsssCH;NssssC;SsCH3;SssCH2;SsssCH;SssssC;MAXsCH3;MINsCH3;ECIndex;ETA_alpha;ETA_shape_p;ETA_shape_y;ETA_shape_x;ETA_beta;AETA_beta;ETA_beta_s;AETA_beta_s;ETA_eta;AETA_eta;ETA_eta_L;AETA_eta_L;ETA_eta_R;AETA_eta_R;ETA_eta_RL;AETA_eta_RL;ETA_eta_B;AETA_eta_B;ETA_eta_BR;AETA_eta_BR;ETA_epsilon_1;ETA_epsilon_2;ETA_epsilon_3;ETA_epsilon_4;ETA_epsilon_5;ETA_dBeta;AETA_dBeta;ETA_psi_1;ETA_dPsi_B;fragCpx;IC0;IC1;IC2;IC3;IC4;IC5;TIC0;TIC1;TIC2;TIC3;TIC4;TIC5;SIC0;SIC1;SIC2;SIC3;SIC4;SIC5;BIC0;BIC1;BIC2;BIC3;BIC4;BIC5;CIC0;CIC1;CIC2;CIC3;CIC4;CIC5;MIC0;MIC1;MIC2;MIC3;MIC4;MIC5;ZMIC0;ZMIC1;ZMIC2;ZMIC3;ZMIC4;ZMIC5;Kier1;Lipinski;GhoseFilter;FilterItLogS;VMcGowan;LabuteASA;PEOE_VSA6;PEOE_VSA7;SMR_VSA4;SMR_VSA5;SlogP_VSA4;SlogP_VSA5;EState_VSA3;EState_VSA4;EState_VSA5;EState_VSA7;EState_VSA8;VSA_EState4;VSA_EState5;VSA_EState7;VSA_EState8;MDEC-11;MID;AMID;MID_C;AMID_C;MPC2;MPC3;MPC4;MPC5;MPC6;MPC7;MPC8;MPC9;MPC10;TMPC10;piPC1;piPC2;piPC3;piPC4;piPC5;piPC6;piPC7;piPC8;piPC9;piPC10;TpiPC10;apol;bpol;nRot;RotRatio;SLogP;SMR;GGI1;GGI2;GGI3;GGI4;GGI5;GGI6;GGI7;GGI8;GGI9;GGI10;JGI1;JGI2;JGI3;JGI4;JGI5;JGI6;JGI7;JGI8;JGI9;JGI10;JGT10;Diameter;Radius;TopoShapeIndex;PetitjeanIndex;Vabc;VAdjMat;MWC01;MWC02;MWC03;MWC04;MWC05;MWC06;MWC07;MWC08;MWC09;MWC10;TMWC10;SRW02;SRW04;SRW06;SRW08;SRW10;TSRW10;MW;AMW;WPath;WPol;Zagreb1;Zagreb2;mZagreb1;mZagreb2
303.0;CCCCCCCCCCCCCCCCC;heptadecane;NDJKXXJCMXVBJW-UHFFFAOYSA-N;20.860104605522682;1.9696155060244154;3.939231012048831;20.860104605522682;1.227064976795452;3.6446751771344355;3.810017434253781;0.2241186726031636;1.8682620161099381;84.56403947377966;4.97435526316351;4.968137361986722;53.0;17.0;36.0;17.0;62.0;60.0;56.0;52.0;48.0;44.0;40.0;36.0;32.0;98.0;126.0;205.0;240.0;224.0;208.0;192.0;176.0;160.0;77.75;94.5;157.25;196.0;183.75;171.5;159.25;147.0;134.75;648.0;792.0;957.0;944.0;880.0;816.0;752.0;688.0;624.0;2489.068361;2744.0811039999994;2984.366966999999;2839.429501999999;2642.6727729999993;2445.9160439999996;2249.1593149999994;2052.4025859999992;1855.6458569999995;8318.802129252095;10906.788617327948;14578.12883974371;15156.601460766029;14149.803115810904;13143.00477085578;12136.206425900653;11129.408080945526;10122.609735990402;370.0534759999999;376.883008;723.959196;1003.7159600000001;940.8310600000002;877.9461600000001;815.0612600000001;752.17636;689.29146;284.78249999999986;306.0;569.4375;767.9749999999999;719.6724999999999;671.37;623.0675;574.765;526.4625;280.48999999999984;298.0;558.3900000000001;757.62;710.0100000000001;662.4;614.7900000000001;567.1800000000001;519.57;63.417364574564026;84.70999516;124.664295461829;138.318024749732;129.29649589033602;120.27496703093999;111.253438171544;102.23190931214799;93.210380452752;8812.539526402965;7541.1214151044005;15891.27418291063;23843.11928110874;22364.16412607014;20885.20897103154;19406.253815992946;17927.29866095435;16448.343505915753;1.169811320754717;1.1538461538461537;0.5490196078431373;0.3611111111111111;1.849056603773585;2.423076923076923;2.0098039215686274;1.6666666666666667;1.4669811320754718;1.8173076923076923;1.5416666666666667;1.3611111111111112;12.226415094339623;15.23076923076923;9.382352941176471;6.555555555555555;46.96355398113208;52.77079046153845;29.258499676470578;19.71826043055555;156.95853074060557;209.74593494861438;142.92283176219323;105.25417681087521;6.982141056603771;7.247750153846154;7.097639176470588;6.970249722222223;5.37325471698113;5.884615384615385;5.582720588235294;5.333159722222222;5.292264150943393;5.730769230769231;5.474411764705883;5.26125;1.1965540485766797;1.6290383684615386;1.2221989751159705;0.9605418385398055;166.2743306868484;145.02156567508462;155.79680571481012;165.57721722992179;0.07629155863690143;-0.004436660402071267;-0.03643285221112087;-0.00011355071454189226;-4.171983540040506e-06;-7.018372846586307e-08;-5.5632340227596e-10;-2.114234134986681e-12;5.6326688105401423e-14;42.67924528301888;1.6731933072267773;-19.118547525809895;-0.5624777500889995;-0.5980776076895692;-0.6336774652901388;-0.669277322890709;-0.7048771804912786;-0.7404770380918486;10.754716981132074;1.1840512637949467;-4.301530793876822;-0.2392310430758274;-0.2620149519401921;-0.28479886080455663;-0.3075827696689213;-0.33036667853328583;-0.35315058739765043;4.047169811320754;-0.6406194375222513;-1.614364542541831;0.02278390886436485;0.02135991456034203;0.019935920256319184;0.01851192595229645;0.017087931648273658;0.015663937344250783;288.6792452830188;-11.534353862584528;-132.45817016731928;-1.317194731221079;-1.3527945888216486;-1.388394446422216;-1.4239943040227843;-1.4595941616233574;-1.495194019223927;1397.9697643018872;-55.856727541474186;-641.4472808640087;-6.378700367390508;-6.551097674617267;-6.723494981844038;-6.895892289070801;-7.068289596297575;-7.240686903524349;2599.5844721661183;-103.86797003105659;-1192.798609546442;-11.861465713422803;-12.182045867839598;-12.502626022256417;-12.823206176673239;-13.14378633109007;-13.464366485506908;0.27385267924528284;-0.01094194944821002;-0.12565511854753258;-0.001249543609825026;-0.0012833150587391777;-0.0013170865076533303;-0.001350857956567482;-0.0013846294054816362;-0.0014184008543957887;1.4145283018867896;-0.056518333926664596;-0.6490450338198637;-0.006454254182983246;-0.006628693485226031;-0.006803132787468812;-0.006977572089711594;-0.0071520113919543715;-0.007326450694197177;1.0392452830188663;-0.041523673905308166;-0.47684941260235236;-0.0047419010323956;-0.004870060519757625;-0.00499822000711965;-0.005126379494481675;-0.0052545389818437;-0.005382698469205721;11.62135211938845;-0.46433815349388013;-5.332364767322062;-0.05302627061504128;-0.05445941306409657;-0.05589255551315178;-0.05732569796220699;-0.058758840411262114;-0.06019198286031735;63.12736915718463;-2.5222922193769577;-28.965490047058157;-0.28803954357082695;-0.2958243960997684;-0.30360924862870975;-0.3113941011576511;-0.3191789536865923;-0.3269638062155338;0.001439463370507574;-8.532039234752437e-05;-0.0003571848255992242;-7.885466287631407e-07;0.8052687789248845;0.032176794369745715;-0.18743674044911662;-0.003906095486729163;0.20291918832324668;0.022770216611441282;-0.04217187052820413;-0.0016613266880265791;0.07636169455322177;-0.012319604567735601;-0.015827103358253245;0.000158221589335867;5.446778212887147;-0.22181449735739475;-1.2986095114443066;-0.009147185633479715;26.376788005695985;-1.074167837336042;-6.288698832000085;-0.04429653032910075;49.04876362577582;-1.9974609621357036;-11.694104015161196;-0.08237128967654724;0.005167031683873261;-0.00021042210477326964;-0.001231912926936594;-8.677386179340459e-06;0.026689213243146975;-0.0010868910370512423;-0.006363186606077095;-4.482120960405032e-05;0.019608401566393704;-0.0007985321904866954;-0.004674994241199533;-3.2929868280525e-05;0.21927079470544245;-0.00892957987488231;-0.05227808595413786;-0.00036823799038223113;1.191082436928012;-0.048505619603403036;-0.28397539261821725;-0.0020002746081307426;-0.05927236086420126;-0.24813748853732628;-0.0005478059705576867;0.0399578317350202;-0.23276295487248827;-0.004850672954121228;-0.16133225748610402;-0.20726495726495744;0.0020720020720021003;-0.04072398190045242;-0.2384179161860822;-0.001679375453885263;-0.040723981900452726;-0.23841791618608227;-0.0016793754538852513;-0.04072398190045324;-0.23841791618608263;-0.0016793754538852424;-0.0407239819004816;-0.2384179161860953;-0.0016793754538845403;-0.04072398190045279;-0.23841791618608238;-0.0016793754538852556;-0.040723981900456264;-0.23841791618608402;-0.0016793754538851646;-0.04072398190045267;-0.23841791618608243;-0.0016793754538852465;-0.04072398190045235;-0.23841791618608218;-0.0016793754538852609;1.5777635340767044;1.4422647105170907;0.9557593230906269;1.4995579133510164;1.5170160018030197;1.006864623243933;1.7296037296037299;1.2596553773024364;0.8476430976430979;1.5588235294117647;1.4569396386005384;0.9694535221496008;1.5588235294117647;1.456939638600538;0.9694535221496003;1.5588235294117647;1.4569396386005382;0.9694535221496006;1.558823529411764;1.4569396386005378;0.9694535221496003;1.5588235294117647;1.4569396386005382;0.9694535221496006;1.5588235294117654;1.456939638600539;0.9694535221496009;1.5588235294117652;1.4569396386005384;0.9694535221496007;1.558823529411764;1.4569396386005378;0.9694535221496003;0.20979981456320942;-0.19641082692757528;2.206974083215164;0.9871436102075705;2.206974083215164;0.9871436102075705;2.025770940985929;1.3046162717017782;6.209949343473768;5.803690553459802;12.2209493434738;11.8146905534598;20.78947561958932;20.38321682957535;2.9559493434737734;2.5496905534597967;2.75994934347377;2.3536905534597916;2.7099493434737725;2.30369055345979;1.879949343473767;1.4736905534597933;11.470249343473805;11.063990553459817;2.846262262649495;200.0056540500103;100.00282702500515;158.73342281374897;200.0056540500103;11.765038473530018;100.00282702500515;4.052467743801506;0.23838045551773562;1.9299542660780526;70.53121606853392;4.148895062854937;4.786683643995719;200.0056540500103;100.00282702500515;158.73342281374897;200.0056540500103;11.765038473530018;100.00282702500515;4.052467743801506;0.23838045551773562;1.9299542660780526;70.53121606853392;4.148895062854937;4.786683643995719;200.0056540500103;100.00282702500515;158.73342281374897;200.0056540500103;11.765038473530018;100.00282702500515;4.052467743801506;0.23838045551773562;1.9299542660780526;70.53121606853392;4.148895062854937;4.786683643995719;200.0056540500103;100.00282702500515;158.73342281374897;200.0056540500103;11.765038473530018;100.00282702500515;4.052467743801506;0.23838045551773562;1.9299542660780526;70.53121606853392;4.148895062854937;4.786683643995719;200.0056540500103;100.00282702500515;158.73342281374897;200.0056540500103;11.765038473530018;100.00282702500515;4.052467743801506;0.23838045551773562;1.9299542660780526;70.53121606853392;4.148895062854937;4.786683643995719;200.0056540500103;100.00282702500515;158.73342281374897;200.0056540500103;11.765038473530018;100.00282702500515;4.052467743801506;0.23838045551773562;1.9299542660780526;70.53121606853392;4.148895062854937;4.786683643995719;200.0056540500103;100.00282702500515;158.73342281374897;200.0056540500103;11.765038473530018;100.00282702500515;4.052467743801506;0.23838045551773562;1.9299542660780526;70.53121606853392;4.148895062854937;4.786683643995719;200.0056540500103;100.00282702500515;158.73342281374897;200.0056540500103;11.765038473530018;100.00282702500515;4.052467743801506;0.23838045551773562;1.9299542660780526;70.53121606853392;4.148895062854937;4.786683643995719;103.20671786825555;52.0;16.0;52.0;52.0;0.06980587298721476;0.02845621238137853;2.0;15.0;0.0;0.0;0.0;0.0;0.0;0.0;0.0;0.0;0.0;0.0;0.0;0.0;0.0;0.0;0.0;0.0;12.606601717798217;8.414213562373096;5.5961940777125605;3.707106781186548;2.4445436482630063;1.603553390593274;1.0454951288348662;0.676776695296637;0.7415648069293068;0.5258883476483185;12.606601717798217;8.414213562373096;5.5961940777125605;3.707106781186548;2.4445436482630063;1.603553390593274;1.0454951288348662;0.676776695296637;0.7415648069293068;0.5258883476483185;23.000000000000004;20.021230538672878;26.752900468145736;50.98106336489441;48.058823529411754;48.680000000000014;31.373980838323362;60.47521362663517;0.43396226415094347;0.3777590667674128;0.5047717069461459;0.961906855941404;0.9067702552719199;0.9184905660377362;0.5919619026098748;1.141041766540286;200.0056540500103;100.00282702500515;158.73342281374897;200.0056540500103;11.765038473530018;100.00282702500515;4.052467743801506;0.23838045551773562;1.9299542660780526;70.53121606853392;4.148895062854937;4.786683643995719;2.0;15.0;0.0;0.0;4.584346533444987;21.915653466555014;0.0;0.0;2.2921732667224934;2.2921732667224934;384.0;8.5;0.11764705882352941;0.0;0.0;8.0;0.47058823529411764;8.0;0.47058823529411764;22.141901894501515;1.3024648173236186;8.414213562373096;0.4949537389631233;22.141901894501515;1.3024648173236186;8.414213562373096;0.4949537389631233;0.0;0.0;0.0;0.0;0.4283018867924528;0.7;0.4283018867924528;0.4283018867924528;0.7;-8.0;-0.47058823529411764;0.7142857142857144;0.00028571428571444457;16.0;0.905200296956048;1.072813681241482;1.6746712242157145;2.147260917185735;2.593079027632477;3.0067900869275057;47.97561573867054;56.85912510579854;88.75757488343287;113.80482861084396;137.4331884645213;159.3598746071578;0.15803297272309572;0.18729549227360784;0.29236984652633796;0.3748761761303966;0.45270863102972697;0.5249357268102631;0.15879481964791883;0.18819840824337766;0.2937793059869113;0.3766833829243536;0.45489105329546015;0.5274663421768483;4.822720157607151;4.655106773321717;4.053249230347484;3.5806595373774637;3.1348414269307217;2.721130367635693;6.702050145138937;8.715254503791282;11.086069577090898;13.234059039390635;15.245542260394538;17.090428662239947;67.31538884394658;62.17023599515104;59.14866052733162;53.86232752912122;47.98971115711869;41.94101728439138;17.0;0.0;0.0;-6.732577412587707;250.3900000000001;110.5783248581753;110.15979874327142;0.0;0.0;110.15979874327142;0.0;110.15979874327142;0.0;0.0;96.31232434389018;0.0;13.847474399381248;0.0;0.0;21.915653466555014;4.584346533444987;0.0625;32.828432360734816;1.9310842565138127;32.828432360734816;1.9310842565138127;15.0;14.0;13.0;12.0;11.0;10.0;9.0;8.0;7.0;132.0;2.833213344056216;2.772588722239781;2.70805020110221;2.6390573296152584;2.5649493574615367;2.4849066497880004;2.3978952727983707;2.302585092994046;2.1972245773362196;2.0794415416798357;4.890349128221754;52.394548;36.115452;14.0;0.875;6.877700000000007;80.60300000000008;0.5;0.22222222222222232;0.125;0.08000000000000002;0.05555555555555555;0.04081632653061225;0.03125;0.02469135802469135;0.020000000000000004;0.01652892561983471;0.03125;0.01481481481481482;0.008928571428571428;0.006153846153846155;0.004629629629629629;0.003710575139146568;0.003125;0.0027434842249657054;0.0025000000000000005;0.0023612750885478157;0.08021719647952212;16.0;8.0;1.0;0.5;302.5882077533159;5.0;16.0;4.143134726391533;4.795790545596741;5.459585514144159;6.124683390894205;6.794586580876499;7.4645098346365275;8.137103389639302;8.80941494391005;9.483492392643639;94.21230131873266;3.4965075614664802;4.532599493153256;5.6937321388027;6.912742820493176;8.164225652265827;45.799807666181444;240.28170115199998;4.533617002867924;816.0;14.0;62.0;60.0;5.75;4.5