boiling_point;SMILES;IUPAC_name;InChIKey;SpAbs_A;SpMax_A;SpDiam_A;SpAD_A;SpMAD_A;LogEE_A;VE1_A;VE2_A;VE3_A;VR1_A;VR2_A;VR3_A;nAtom;nHeavyAtom;nH;nC;ATS0dv;ATS1dv;ATS2dv;ATS3dv;ATS4dv;ATS5dv;ATS6dv;ATS7dv;ATS8dv;ATS0d;ATS1d;ATS2d;ATS3d;ATS4d;ATS5d;ATS6d;ATS7d;ATS8d;ATS0s;ATS1s;ATS2s;ATS3s;ATS4s;ATS5s;ATS6s;ATS7s;ATS8s;ATS0Z;ATS1Z;ATS2Z;ATS3Z;ATS4Z;ATS5Z;ATS6Z;ATS7Z;ATS8Z;ATS0m;ATS1m;ATS2m;ATS3m;ATS4m;ATS5m;ATS6m;ATS7m;ATS8m;ATS0v;ATS1v;ATS2v;ATS3v;ATS4v;ATS5v;ATS6v;ATS7v;ATS8v;ATS0se;ATS1se;ATS2se;ATS3se;ATS4se;ATS5se;ATS6se;ATS7se;ATS8se;ATS0pe;ATS1pe;ATS2pe;ATS3pe;ATS4pe;ATS5pe;ATS6pe;ATS7pe;ATS8pe;ATS0are;ATS1are;ATS2are;ATS3are;ATS4are;ATS5are;ATS6are;ATS7are;ATS8are;ATS0p;ATS1p;ATS2p;ATS3p;ATS4p;ATS5p;ATS6p;ATS7p;ATS8p;ATS0i;ATS1i;ATS2i;ATS3i;ATS4i;ATS5i;ATS6i;ATS7i;ATS8i;AATS0dv;AATS1dv;AATS2dv;AATS3dv;AATS0d;AATS1d;AATS2d;AATS3d;AATS0s;AATS1s;AATS2s;AATS3s;AATS0Z;AATS1Z;AATS2Z;AATS3Z;AATS0m;AATS1m;AATS2m;AATS3m;AATS0v;AATS1v;AATS2v;AATS3v;AATS0se;AATS1se;AATS2se;AATS3se;AATS0pe;AATS1pe;AATS2pe;AATS3pe;AATS0are;AATS1are;AATS2are;AATS3are;AATS0p;AATS1p;AATS2p;AATS3p;AATS0i;AATS1i;AATS2i;AATS3i;ATSC0c;ATSC1c;ATSC2c;ATSC3c;ATSC4c;ATSC5c;ATSC6c;ATSC7c;ATSC8c;ATSC0dv;ATSC1dv;ATSC2dv;ATSC3dv;ATSC4dv;ATSC5dv;ATSC6dv;ATSC7dv;ATSC8dv;ATSC0d;ATSC1d;ATSC2d;ATSC3d;ATSC4d;ATSC5d;ATSC6d;ATSC7d;ATSC8d;ATSC0s;ATSC1s;ATSC2s;ATSC3s;ATSC4s;ATSC5s;ATSC6s;ATSC7s;ATSC8s;ATSC0Z;ATSC1Z;ATSC2Z;ATSC3Z;ATSC4Z;ATSC5Z;ATSC6Z;ATSC7Z;ATSC8Z;ATSC0m;ATSC1m;ATSC2m;ATSC3m;ATSC4m;ATSC5m;ATSC6m;ATSC7m;ATSC8m;ATSC0v;ATSC1v;ATSC2v;ATSC3v;ATSC4v;ATSC5v;ATSC6v;ATSC7v;ATSC8v;ATSC0se;ATSC1se;ATSC2se;ATSC3se;ATSC4se;ATSC5se;ATSC6se;ATSC7se;ATSC8se;ATSC0pe;ATSC1pe;ATSC2pe;ATSC3pe;ATSC4pe;ATSC5pe;ATSC6pe;ATSC7pe;ATSC8pe;ATSC0are;ATSC1are;ATSC2are;ATSC3are;ATSC4are;ATSC5are;ATSC6are;ATSC7are;ATSC8are;ATSC0p;ATSC1p;ATSC2p;ATSC3p;ATSC4p;ATSC5p;ATSC6p;ATSC7p;ATSC8p;ATSC0i;ATSC1i;ATSC2i;ATSC3i;ATSC4i;ATSC5i;ATSC6i;ATSC7i;ATSC8i;AATSC0c;AATSC1c;AATSC2c;AATSC3c;AATSC0dv;AATSC1dv;AATSC2dv;AATSC3dv;AATSC0d;AATSC1d;AATSC2d;AATSC3d;AATSC0s;AATSC1s;AATSC2s;AATSC3s;AATSC0Z;AATSC1Z;AATSC2Z;AATSC3Z;AATSC0m;AATSC1m;AATSC2m;AATSC3m;AATSC0v;AATSC1v;AATSC2v;AATSC3v;AATSC0se;AATSC1se;AATSC2se;AATSC3se;AATSC0pe;AATSC1pe;AATSC2pe;AATSC3pe;AATSC0are;AATSC1are;AATSC2are;AATSC3are;AATSC0p;AATSC1p;AATSC2p;AATSC3p;AATSC0i;AATSC1i;AATSC2i;AATSC3i;MATS1c;MATS2c;MATS3c;MATS1dv;MATS2dv;MATS3dv;MATS1s;MATS2s;MATS3s;MATS1Z;MATS2Z;MATS3Z;MATS1m;MATS2m;MATS3m;MATS1v;MATS2v;MATS3v;MATS1se;MATS2se;MATS3se;MATS1pe;MATS2pe;MATS3pe;MATS1are;MATS2are;MATS3are;MATS1p;MATS2p;MATS3p;MATS1i;MATS2i;MATS3i;GATS1c;GATS2c;GATS3c;GATS1dv;GATS2dv;GATS3dv;GATS1s;GATS2s;GATS3s;GATS1Z;GATS2Z;GATS3Z;GATS1m;GATS2m;GATS3m;GATS1v;GATS2v;GATS3v;GATS1se;GATS2se;GATS3se;GATS1pe;GATS2pe;GATS3pe;GATS1are;GATS2are;GATS3are;GATS1p;GATS2p;GATS3p;GATS1i;GATS2i;GATS3i;BCUTc-1h;BCUTc-1l;BCUTdv-1h;BCUTdv-1l;BCUTd-1h;BCUTd-1l;BCUTs-1h;BCUTs-1l;BCUTZ-1h;BCUTZ-1l;BCUTm-1h;BCUTm-1l;BCUTv-1h;BCUTv-1l;BCUTse-1h;BCUTse-1l;BCUTpe-1h;BCUTpe-1l;BCUTare-1h;BCUTare-1l;BCUTp-1h;BCUTp-1l;BCUTi-1h;BCUTi-1l;BalabanJ;SpAbs_DzZ;SpMax_DzZ;SpDiam_DzZ;SpAD_DzZ;SpMAD_DzZ;LogEE_DzZ;VE1_DzZ;VE2_DzZ;VE3_DzZ;VR1_DzZ;VR2_DzZ;VR3_DzZ;SpAbs_Dzm;SpMax_Dzm;SpDiam_Dzm;SpAD_Dzm;SpMAD_Dzm;LogEE_Dzm;VE1_Dzm;VE2_Dzm;VE3_Dzm;VR1_Dzm;VR2_Dzm;VR3_Dzm;SpAbs_Dzv;SpMax_Dzv;SpDiam_Dzv;SpAD_Dzv;SpMAD_Dzv;LogEE_Dzv;VE1_Dzv;VE2_Dzv;VE3_Dzv;VR1_Dzv;VR2_Dzv;VR3_Dzv;SpAbs_Dzse;SpMax_Dzse;SpDiam_Dzse;SpAD_Dzse;SpMAD_Dzse;LogEE_Dzse;VE1_Dzse;VE2_Dzse;VE3_Dzse;VR1_Dzse;VR2_Dzse;VR3_Dzse;SpAbs_Dzpe;SpMax_Dzpe;SpDiam_Dzpe;SpAD_Dzpe;SpMAD_Dzpe;LogEE_Dzpe;VE1_Dzpe;VE2_Dzpe;VE3_Dzpe;VR1_Dzpe;VR2_Dzpe;VR3_Dzpe;SpAbs_Dzare;SpMax_Dzare;SpDiam_Dzare;SpAD_Dzare;SpMAD_Dzare;LogEE_Dzare;VE1_Dzare;VE2_Dzare;VE3_Dzare;VR1_Dzare;VR2_Dzare;VR3_Dzare;SpAbs_Dzp;SpMax_Dzp;SpDiam_Dzp;SpAD_Dzp;SpMAD_Dzp;LogEE_Dzp;VE1_Dzp;VE2_Dzp;VE3_Dzp;VR1_Dzp;VR2_Dzp;VR3_Dzp;SpAbs_Dzi;SpMax_Dzi;SpDiam_Dzi;SpAD_Dzi;SpMAD_Dzi;LogEE_Dzi;VE1_Dzi;VE2_Dzi;VE3_Dzi;VR1_Dzi;VR2_Dzi;VR3_Dzi;BertzCT;nBonds;nBondsO;nBondsS;nBondsKS;RNCG;RPCG;C1SP3;C2SP3;C3SP3;C4SP3;Xc-3d;Xc-4d;Xc-5d;Xc-6d;Xc-3dv;Xc-4dv;Xc-5dv;Xc-6dv;Xpc-4d;Xpc-5d;Xpc-6d;Xpc-4dv;Xpc-5dv;Xpc-6dv;Xp-0d;Xp-1d;Xp-2d;Xp-3d;Xp-4d;Xp-5d;Xp-6d;Xp-7d;AXp-0d;AXp-1d;Xp-0dv;Xp-1dv;Xp-2dv;Xp-3dv;Xp-4dv;Xp-5dv;Xp-6dv;Xp-7dv;AXp-0dv;AXp-1dv;SZ;Sm;Sv;Sse;Spe;Sare;Sp;Si;MZ;Mm;Mv;Mse;Mpe;Mare;Mp;Mi;SpAbs_D;SpMax_D;SpDiam_D;SpAD_D;SpMAD_D;LogEE_D;VE1_D;VE2_D;VE3_D;VR1_D;VR2_D;VR3_D;NsCH3;NssCH2;NsssCH;NssssC;SsCH3;SssCH2;SsssCH;SssssC;MAXsCH3;MINsCH3;ECIndex;ETA_alpha;ETA_shape_p;ETA_shape_y;ETA_shape_x;ETA_beta;AETA_beta;ETA_beta_s;AETA_beta_s;ETA_eta;AETA_eta;ETA_eta_L;AETA_eta_L;ETA_eta_R;AETA_eta_R;ETA_eta_RL;AETA_eta_RL;ETA_eta_B;AETA_eta_B;ETA_eta_BR;AETA_eta_BR;ETA_epsilon_1;ETA_epsilon_2;ETA_epsilon_3;ETA_epsilon_4;ETA_epsilon_5;ETA_dBeta;AETA_dBeta;ETA_psi_1;ETA_dPsi_B;fragCpx;IC0;IC1;IC2;IC3;IC4;IC5;TIC0;TIC1;TIC2;TIC3;TIC4;TIC5;SIC0;SIC1;SIC2;SIC3;SIC4;SIC5;BIC0;BIC1;BIC2;BIC3;BIC4;BIC5;CIC0;CIC1;CIC2;CIC3;CIC4;CIC5;MIC0;MIC1;MIC2;MIC3;MIC4;MIC5;ZMIC0;ZMIC1;ZMIC2;ZMIC3;ZMIC4;ZMIC5;Kier1;Lipinski;GhoseFilter;FilterItLogS;VMcGowan;LabuteASA;PEOE_VSA6;PEOE_VSA7;SMR_VSA4;SMR_VSA5;SlogP_VSA4;SlogP_VSA5;EState_VSA3;EState_VSA4;EState_VSA5;EState_VSA7;EState_VSA8;VSA_EState4;VSA_EState5;VSA_EState7;VSA_EState8;MDEC-11;MID;AMID;MID_C;AMID_C;MPC2;MPC3;MPC4;MPC5;MPC6;MPC7;MPC8;MPC9;MPC10;TMPC10;piPC1;piPC2;piPC3;piPC4;piPC5;piPC6;piPC7;piPC8;piPC9;piPC10;TpiPC10;apol;bpol;nRot;RotRatio;SLogP;SMR;GGI1;GGI2;GGI3;GGI4;GGI5;GGI6;GGI7;GGI8;GGI9;GGI10;JGI1;JGI2;JGI3;JGI4;JGI5;JGI6;JGI7;JGI8;JGI9;JGI10;JGT10;Diameter;Radius;TopoShapeIndex;PetitjeanIndex;Vabc;VAdjMat;MWC01;MWC02;MWC03;MWC04;MWC05;MWC06;MWC07;MWC08;MWC09;MWC10;TMWC10;SRW02;SRW04;SRW06;SRW08;SRW10;TSRW10;MW;AMW;WPath;WPol;Zagreb1;Zagreb2;mZagreb1;mZagreb2
164.0;CCCCC(C)CCCC;5-methylnonane;TYSIILFJZXHVPU-UHFFFAOYSA-N;11.91800647431436;2.0285234880268836;4.057046976053767;11.918006474314364;1.1918006474314364;3.1146744772913393;2.8470794805962867;0.2847079480596287;1.0462937252213886;34.988404748786714;3.4988404748786714;3.555016713707992;32.0;10.0;22.0;10.0;36.0;35.0;32.0;28.0;22.0;14.0;8.0;4.0;1.0;58.0;71.0;121.0;135.0;126.0;110.0;82.0;66.0;33.0;49.27777777777778;58.99999999999999;93.08333333333333;115.83333333333333;112.41666666666666;101.5;91.25;67.0;37.0;382.0;456.0;555.0;551.0;496.0;432.0;318.0;194.0;112.0;1464.9946180000002;1564.733025;1749.4732169999997;1649.7445519999997;1462.1323989999996;1265.37567;826.4869229999998;496.6379059999998;281.592025;4919.011394973762;6335.857675895377;8408.42647154659;8836.057691156904;8109.013046080151;7102.214701125026;5645.161529291456;3634.5287210612705;2068.2229763494006;223.21136800000002;224.452548;424.876356;565.940384;563.5216600000001;500.63676000000004;437.704428;370.029512;186.21226;171.505;181.9425;333.0825;434.6;429.85749999999996;381.55499999999995;333.0075;275.46500000000003;140.04250000000002;168.98000000000002;177.25;326.85;428.40000000000003;424.35;376.74;328.95;273.42;138.69;37.670483906678;49.59807482;71.856888732735;80.187335449715;75.16732273396;66.14579387456399;55.11141644547;38.062710724262004;21.038149577584;5336.131905433478;4509.8452544938;9427.325702838136;13305.129482658916;13490.433195838561;12011.478040799964;10521.589060384471;9424.175157082063;4616.702265606984;1.125;1.1290322580645162;0.5333333333333333;0.345679012345679;1.8125;2.2903225806451615;2.0166666666666666;1.6666666666666667;1.5399305555555556;1.9032258064516128;1.5513888888888887;1.4300411522633745;11.9375;14.709677419354838;9.25;6.802469135802469;45.781081812500005;50.47525887096774;29.157886949999995;20.36721669135802;153.71910609293008;204.3825056740444;140.14044119244318;109.08713198959141;6.975355250000001;7.240404774193548;7.0812726;6.986918320987654;5.35953125;5.8691129032258065;5.551374999999999;5.3654320987654325;5.280625000000001;5.717741935483871;5.447500000000001;5.28888888888889;1.1772026220836875;1.5999378974193548;1.19761481221225;0.989967104317469;166.7541220447962;145.47887917721934;157.12209504730225;164.2608578106039;0.045793725113776024;-0.005807432944122993;-0.014822070281434722;-0.005287424716669279;0.0006661976706263152;0.003024850512976596;-0.013279531229148956;0.009814903798130634;-0.0002349451755831785;25.875;4.30859375;-9.765625;-3.74609375;-2.99609375;-7.09375;-2.44140625;4.2109375;-0.58203125;8.0;1.9375;-2.75;-0.9375;-2.4375;-2.5;0.4375;0.375;0.1875;3.3576388888888897;-1.1329210069444424;-0.5039062499999991;-0.32714843749999994;-0.15006510416666713;1.1744791666666663;-1.6259765624999996;0.7402343749999987;0.2763671874999997;171.875;-11.81640625;-50.390625;-24.12109375;-2.24609375;-2.34375;-52.44140625;41.2109375;-2.83203125;832.3288118749999;-57.22260581640611;-244.02367439062482;-116.80978212109369;-10.877024246093768;-11.349938343750004;-253.95487044140623;199.56974921093732;-13.714508832031292;1547.7509673946556;-106.40787900838225;-453.77244271343284;-217.21277781049994;-20.22629105118017;-21.10569500992719;-472.2399258471195;371.1084705912184;-25.502714803662016;0.1630474999999998;-0.011209515625000695;-0.0478025625000005;-0.022882234375000088;-0.002130734374999905;-0.002223374999999893;-0.04974801562499982;0.039094343750000496;-0.0026865781249998328;0.8421874999999983;-0.057900390625000686;-0.24691406250000014;-0.11819335937499992;-0.011005859374999899;-0.01148437499999988;-0.25696289062499933;0.2019335937500002;-0.013876953124999786;0.6187499999999992;-0.042539062500000294;-0.18140625000000005;-0.08683593749999996;-0.008085937499999946;-0.008437499999999942;-0.18878906249999972;0.14835937500000007;-0.010195312499999908;6.919166958336874;-0.4756927283856631;-2.0285739491487678;-0.9710421810847779;-0.09042093184190181;-0.09435227670459315;-2.1111321912652845;1.6590275320557757;-0.11400900101804998;37.58502473308684;-2.5839704503997742;-11.019245887655048;-5.274716539245718;-0.49116793685283255;-0.5125230645420848;-11.467703569129327;9.011863884865178;-0.6192987029883503;0.0014310539098055007;-0.00018733654658461266;-0.0002470345046905787;-6.527684835394172e-05;0.80859375;0.1389868951612903;-0.16276041666666666;-0.04624807098765432;0.25;0.0625;-0.04583333333333333;-0.011574074074074073;0.1049262152777778;-0.03654583893369169;-0.008398437499999986;-0.004038869598765432;5.37109375;-0.3811743951612903;-0.83984375;-0.29779128086419754;26.010275371093748;-1.8458905102066487;-4.067061239843747;-1.442096075569058;48.36721773108299;-3.432512226076847;-7.5628740452238805;-2.6816392322283944;0.005095234374999993;-0.0003615972782258289;-0.0007967093750000083;-0.00028249672067901346;0.026318359374999947;-0.0018677545362903447;-0.004115234375000002;-0.001459177276234567;0.019335937499999976;-0.0013722278225806546;-0.003023437500000001;-0.0010720486111111106;0.2162239674480273;-0.015344926722118166;-0.03380956581914613;-0.011988175075120715;1.1745320229089637;-0.08335388549676691;-0.18365409812758413;-0.0651199572746385;-0.13090809878020193;-0.17262417788590087;-0.0456145278012718;0.17188717469222378;-0.20128824476650561;-0.05719568199439375;-0.3483003636121019;-0.08004136504653553;-0.038492473859588636;-0.07096774193548387;-0.15636363636363637;-0.05544332210998878;-0.0709677419354837;-0.1563636363636363;-0.05544332210998876;-0.07096774193548366;-0.15636363636363626;-0.05544332210998877;-0.07096774193548837;-0.1563636363636382;-0.05544332210998906;-0.07096774193548486;-0.15636363636363676;-0.055443322109988855;-0.07096774193548444;-0.1563636363636366;-0.05544332210998882;-0.07096774193548433;-0.15636363636363657;-0.05544332210998882;-0.07096774193548536;-0.15636363636363695;-0.05544332210998887;1.6604661191874883;1.2986438960828104;1.021489289414852;1.429951690821256;1.6972624798711755;1.138903799129242;1.9524301964839703;0.9873836608066181;0.9118694702975982;1.6;1.3527272727272728;1.0576879910213244;1.6000000000000003;1.352727272727273;1.0576879910213246;1.6000000000000005;1.352727272727273;1.0576879910213246;1.6;1.352727272727273;1.0576879910213244;1.6000000000000003;1.3527272727272728;1.0576879910213244;1.6000000000000003;1.3527272727272728;1.0576879910213246;1.6;1.352727272727273;1.0576879910213246;1.5999999999999999;1.3527272727272726;1.0576879910213242;0.20959351321451916;-0.2087751599926143;3.0257590055638937;0.9871436209956059;3.0257590055638937;0.9871436209956059;2.0264281261826333;1.2302525028967704;6.212063613759201;5.79430923597854;12.223063613759205;11.805309235978541;20.791589889874697;20.37383551209405;2.958063613759218;2.5403092359785395;2.762063613759215;2.3443092359785376;2.7120636137592147;2.29430923597854;1.8820636137592146;1.4643092359785401;11.472363613759216;11.054609235978553;2.998419094375296;62.19378363179082;31.09689181589541;47.67861055465859;62.19378363179082;6.219378363179082;31.09689181589553;3.1055529794044;0.31055529794044;1.1331917927346558;31.35164490461817;3.135164490461817;3.445266734749309;62.19378363179082;31.09689181589541;47.67861055465859;62.19378363179082;6.219378363179082;31.09689181589553;3.1055529794044;0.31055529794044;1.1331917927346558;31.35164490461817;3.135164490461817;3.445266734749309;62.19378363179082;31.09689181589541;47.67861055465859;62.19378363179082;6.219378363179082;31.09689181589553;3.1055529794044;0.31055529794044;1.1331917927346558;31.35164490461817;3.135164490461817;3.445266734749309;62.19378363179082;31.09689181589541;47.67861055465859;62.19378363179082;6.219378363179082;31.09689181589553;3.1055529794044;0.31055529794044;1.1331917927346558;31.35164490461817;3.135164490461817;3.445266734749309;62.19378363179082;31.09689181589541;47.67861055465859;62.19378363179082;6.219378363179082;31.09689181589553;3.1055529794044;0.31055529794044;1.1331917927346558;31.35164490461817;3.135164490461817;3.445266734749309;62.19378363179082;31.09689181589541;47.67861055465859;62.19378363179082;6.219378363179082;31.09689181589553;3.1055529794044;0.31055529794044;1.1331917927346558;31.35164490461817;3.135164490461817;3.445266734749309;62.19378363179082;31.09689181589541;47.67861055465859;62.19378363179082;6.219378363179082;31.09689181589553;3.1055529794044;0.31055529794044;1.1331917927346558;31.35164490461817;3.135164490461817;3.445266734749309;62.19378363179082;31.09689181589541;47.67861055465859;62.19378363179082;6.219378363179082;31.09689181589553;3.1055529794044;0.31055529794044;1.1331917927346558;31.35164490461817;3.135164490461817;3.445266734749309;49.05865002596163;31.0;9.0;31.0;31.0;0.1171828391276865;0.053740943641081736;3.0;6.0;1.0;0.0;0.28867513459481287;0.0;0.0;0.0;0.28867513459481287;0.0;0.0;0.0;0.408248290463863;0.4330127018922193;0.4927992798267444;0.408248290463863;0.4330127018922193;0.4927992798267444;7.819990956308912;4.808060412490447;3.3896287658987125;2.1009536313038994;1.2495092828199454;0.9010475702906073;0.2762929288806347;0.14433756729740643;0.7819990956308912;0.5342289347211608;7.819990956308912;4.808060412490447;3.3896287658987125;2.1009536313038994;1.2495092828199454;0.9010475702906073;0.2762929288806347;0.14433756729740643;0.7819990956308912;0.5342289347211608;13.666666666666668;11.846307551411208;15.96010584164462;30.766205389657685;28.98039215686275;29.360000000000003;18.784099401197608;36.568186105165935;0.42708333333333337;0.37019711098160024;0.49875330755139435;0.9614439184268027;0.9056372549019609;0.9175000000000001;0.5870031062874252;1.1427558157864355;62.19378363179082;31.09689181589541;47.67861055465859;62.19378363179082;6.219378363179082;31.09689181589553;3.1055529794044;0.31055529794044;1.1331917927346558;31.35164490461817;3.135164490461817;3.445266734749309;3.0;6.0;1.0;0.0;6.921033163265307;8.440170540438398;0.9721296296296295;0.0;2.3802777777777777;2.270377692743764;105.0;5.0;0.3;0.1;0.0;4.5;0.45;4.5;0.45;11.474967507520708;1.1474967507520708;4.808060412490447;0.48080604124904475;11.474967507520708;1.1474967507520708;4.808060412490447;0.48080604124904475;0.10615314988264757;0.010615314988264757;0.10615314988264757;0.010615314988264757;0.425;0.7;0.425;0.425;0.7;-4.5;-0.45;0.7142857142857143;0.00028571428571433355;9.0;0.8960382325345574;1.300870058859033;2.514097655573916;3.366729296672175;3.366729296672175;3.366729296672175;28.673223441105836;41.627841883489054;80.45112497836531;107.7353374935096;107.7353374935096;107.7353374935096;0.17920764650691148;0.2601740117718066;0.5028195311147832;0.673345859334435;0.673345859334435;0.673345859334435;0.1808644987797396;0.26257943314269827;0.5074683153557936;0.679571233302474;0.679571233302474;0.679571233302474;4.103961767465442;3.699129941140967;2.485902344426084;1.6332707033278249;1.6332707033278249;1.6332707033278249;6.673151904630568;11.535586970613844;16.975647936818504;17.83510063104555;17.83510063104555;17.83510063104555;39.639944988972836;31.177975668276126;25.031296086853942;22.208646483360873;22.208646483360873;22.208646483360873;10.0;1.0;0.0;-3.493302638111995;151.76000000000002;66.02373005739904;59.29614133662794;5.917906046161393;5.917906046161393;59.29614133662794;5.917906046161393;59.29614133662794;0.0;5.917906046161393;38.524929737556064;0.0;20.771211599071872;0.0;0.9721296296296295;8.440170540438398;6.921033163265307;0.5129927840030091;18.652466570904146;1.8652466570904145;18.652466570904146;1.8652466570904145;9.0;8.0;7.0;6.0;3.0;2.0;1.0;0.0;0.0;55.0;2.302585092994046;2.302585092994046;2.1972245773362196;2.0794415416798357;1.9459101490553132;1.3862943611198906;1.0986122886681098;0.6931471805599453;0.0;0.0;4.02535169073515;31.369446;22.070553999999998;6.0;0.6666666666666666;4.002900000000003;48.21400000000003;1.5;0.666666666666667;0.375;0.24000000000000005;0.05555555555555555;0.04081632653061225;0.03125;0.0;0.0;0.0;0.16666666666666669;0.07407407407407411;0.046875;0.034285714285714294;0.009259259259259259;0.01360544217687075;0.015625;0.0;0.0;0.0;0.36039115646258507;8.0;4.0;1.0;0.5;181.5163111863147;4.169925001442312;9.0;3.6109179126442243;4.2626798770413155;4.962844630259907;5.645446897643238;6.354370040797351;7.048386408721883;7.76004068088038;8.458504195067558;9.17107965802288;76.27427030107873;2.9444389791664403;4.007333185232471;5.231108616854587;6.532334292222349;7.878155336503324;36.59337040997917;142.172150704;4.4428797095;149.0;8.0;36.0;35.0;4.611111111111111;2.666666666666667