boiling_point;SMILES;IUPAC_name;InChIKey;SpAbs_A;SpMax_A;SpDiam_A;SpAD_A;SpMAD_A;LogEE_A;VE1_A;VE2_A;VE3_A;VR1_A;VR2_A;VR3_A;nAtom;nHeavyAtom;nH;nC;ATS0dv;ATS1dv;ATS2dv;ATS3dv;ATS4dv;ATS5dv;ATS6dv;ATS7dv;ATS8dv;ATS0d;ATS1d;ATS2d;ATS3d;ATS4d;ATS5d;ATS6d;ATS7d;ATS8d;ATS0s;ATS1s;ATS2s;ATS3s;ATS4s;ATS5s;ATS6s;ATS7s;ATS8s;ATS0Z;ATS1Z;ATS2Z;ATS3Z;ATS4Z;ATS5Z;ATS6Z;ATS7Z;ATS8Z;ATS0m;ATS1m;ATS2m;ATS3m;ATS4m;ATS5m;ATS6m;ATS7m;ATS8m;ATS0v;ATS1v;ATS2v;ATS3v;ATS4v;ATS5v;ATS6v;ATS7v;ATS8v;ATS0se;ATS1se;ATS2se;ATS3se;ATS4se;ATS5se;ATS6se;ATS7se;ATS8se;ATS0pe;ATS1pe;ATS2pe;ATS3pe;ATS4pe;ATS5pe;ATS6pe;ATS7pe;ATS8pe;ATS0are;ATS1are;ATS2are;ATS3are;ATS4are;ATS5are;ATS6are;ATS7are;ATS8are;ATS0p;ATS1p;ATS2p;ATS3p;ATS4p;ATS5p;ATS6p;ATS7p;ATS8p;ATS0i;ATS1i;ATS2i;ATS3i;ATS4i;ATS5i;ATS6i;ATS7i;ATS8i;AATS0dv;AATS1dv;AATS2dv;AATS3dv;AATS0d;AATS1d;AATS2d;AATS3d;AATS0s;AATS1s;AATS2s;AATS3s;AATS0Z;AATS1Z;AATS2Z;AATS3Z;AATS0m;AATS1m;AATS2m;AATS3m;AATS0v;AATS1v;AATS2v;AATS3v;AATS0se;AATS1se;AATS2se;AATS3se;AATS0pe;AATS1pe;AATS2pe;AATS3pe;AATS0are;AATS1are;AATS2are;AATS3are;AATS0p;AATS1p;AATS2p;AATS3p;AATS0i;AATS1i;AATS2i;AATS3i;ATSC0c;ATSC1c;ATSC2c;ATSC3c;ATSC4c;ATSC5c;ATSC6c;ATSC7c;ATSC8c;ATSC0dv;ATSC1dv;ATSC2dv;ATSC3dv;ATSC4dv;ATSC5dv;ATSC6dv;ATSC7dv;ATSC8dv;ATSC0d;ATSC1d;ATSC2d;ATSC3d;ATSC4d;ATSC5d;ATSC6d;ATSC7d;ATSC8d;ATSC0s;ATSC1s;ATSC2s;ATSC3s;ATSC4s;ATSC5s;ATSC6s;ATSC7s;ATSC8s;ATSC0Z;ATSC1Z;ATSC2Z;ATSC3Z;ATSC4Z;ATSC5Z;ATSC6Z;ATSC7Z;ATSC8Z;ATSC0m;ATSC1m;ATSC2m;ATSC3m;ATSC4m;ATSC5m;ATSC6m;ATSC7m;ATSC8m;ATSC0v;ATSC1v;ATSC2v;ATSC3v;ATSC4v;ATSC5v;ATSC6v;ATSC7v;ATSC8v;ATSC0se;ATSC1se;ATSC2se;ATSC3se;ATSC4se;ATSC5se;ATSC6se;ATSC7se;ATSC8se;ATSC0pe;ATSC1pe;ATSC2pe;ATSC3pe;ATSC4pe;ATSC5pe;ATSC6pe;ATSC7pe;ATSC8pe;ATSC0are;ATSC1are;ATSC2are;ATSC3are;ATSC4are;ATSC5are;ATSC6are;ATSC7are;ATSC8are;ATSC0p;ATSC1p;ATSC2p;ATSC3p;ATSC4p;ATSC5p;ATSC6p;ATSC7p;ATSC8p;ATSC0i;ATSC1i;ATSC2i;ATSC3i;ATSC4i;ATSC5i;ATSC6i;ATSC7i;ATSC8i;AATSC0c;AATSC1c;AATSC2c;AATSC3c;AATSC0dv;AATSC1dv;AATSC2dv;AATSC3dv;AATSC0d;AATSC1d;AATSC2d;AATSC3d;AATSC0s;AATSC1s;AATSC2s;AATSC3s;AATSC0Z;AATSC1Z;AATSC2Z;AATSC3Z;AATSC0m;AATSC1m;AATSC2m;AATSC3m;AATSC0v;AATSC1v;AATSC2v;AATSC3v;AATSC0se;AATSC1se;AATSC2se;AATSC3se;AATSC0pe;AATSC1pe;AATSC2pe;AATSC3pe;AATSC0are;AATSC1are;AATSC2are;AATSC3are;AATSC0p;AATSC1p;AATSC2p;AATSC3p;AATSC0i;AATSC1i;AATSC2i;AATSC3i;MATS1c;MATS2c;MATS3c;MATS1dv;MATS2dv;MATS3dv;MATS1s;MATS2s;MATS3s;MATS1Z;MATS2Z;MATS3Z;MATS1m;MATS2m;MATS3m;MATS1v;MATS2v;MATS3v;MATS1se;MATS2se;MATS3se;MATS1pe;MATS2pe;MATS3pe;MATS1are;MATS2are;MATS3are;MATS1p;MATS2p;MATS3p;MATS1i;MATS2i;MATS3i;GATS1c;GATS2c;GATS3c;GATS1dv;GATS2dv;GATS3dv;GATS1s;GATS2s;GATS3s;GATS1Z;GATS2Z;GATS3Z;GATS1m;GATS2m;GATS3m;GATS1v;GATS2v;GATS3v;GATS1se;GATS2se;GATS3se;GATS1pe;GATS2pe;GATS3pe;GATS1are;GATS2are;GATS3are;GATS1p;GATS2p;GATS3p;GATS1i;GATS2i;GATS3i;BCUTc-1h;BCUTc-1l;BCUTdv-1h;BCUTdv-1l;BCUTd-1h;BCUTd-1l;BCUTs-1h;BCUTs-1l;BCUTZ-1h;BCUTZ-1l;BCUTm-1h;BCUTm-1l;BCUTv-1h;BCUTv-1l;BCUTse-1h;BCUTse-1l;BCUTpe-1h;BCUTpe-1l;BCUTare-1h;BCUTare-1l;BCUTp-1h;BCUTp-1l;BCUTi-1h;BCUTi-1l;BalabanJ;SpAbs_DzZ;SpMax_DzZ;SpDiam_DzZ;SpAD_DzZ;SpMAD_DzZ;LogEE_DzZ;VE1_DzZ;VE2_DzZ;VE3_DzZ;VR1_DzZ;VR2_DzZ;VR3_DzZ;SpAbs_Dzm;SpMax_Dzm;SpDiam_Dzm;SpAD_Dzm;SpMAD_Dzm;LogEE_Dzm;VE1_Dzm;VE2_Dzm;VE3_Dzm;VR1_Dzm;VR2_Dzm;VR3_Dzm;SpAbs_Dzv;SpMax_Dzv;SpDiam_Dzv;SpAD_Dzv;SpMAD_Dzv;LogEE_Dzv;VE1_Dzv;VE2_Dzv;VE3_Dzv;VR1_Dzv;VR2_Dzv;VR3_Dzv;SpAbs_Dzse;SpMax_Dzse;SpDiam_Dzse;SpAD_Dzse;SpMAD_Dzse;LogEE_Dzse;VE1_Dzse;VE2_Dzse;VE3_Dzse;VR1_Dzse;VR2_Dzse;VR3_Dzse;SpAbs_Dzpe;SpMax_Dzpe;SpDiam_Dzpe;SpAD_Dzpe;SpMAD_Dzpe;LogEE_Dzpe;VE1_Dzpe;VE2_Dzpe;VE3_Dzpe;VR1_Dzpe;VR2_Dzpe;VR3_Dzpe;SpAbs_Dzare;SpMax_Dzare;SpDiam_Dzare;SpAD_Dzare;SpMAD_Dzare;LogEE_Dzare;VE1_Dzare;VE2_Dzare;VE3_Dzare;VR1_Dzare;VR2_Dzare;VR3_Dzare;SpAbs_Dzp;SpMax_Dzp;SpDiam_Dzp;SpAD_Dzp;SpMAD_Dzp;LogEE_Dzp;VE1_Dzp;VE2_Dzp;VE3_Dzp;VR1_Dzp;VR2_Dzp;VR3_Dzp;SpAbs_Dzi;SpMax_Dzi;SpDiam_Dzi;SpAD_Dzi;SpMAD_Dzi;LogEE_Dzi;VE1_Dzi;VE2_Dzi;VE3_Dzi;VR1_Dzi;VR2_Dzi;VR3_Dzi;BertzCT;nBonds;nBondsO;nBondsS;nBondsKS;RNCG;RPCG;C1SP3;C2SP3;C3SP3;C4SP3;Xc-3d;Xc-4d;Xc-5d;Xc-6d;Xc-3dv;Xc-4dv;Xc-5dv;Xc-6dv;Xpc-4d;Xpc-5d;Xpc-6d;Xpc-4dv;Xpc-5dv;Xpc-6dv;Xp-0d;Xp-1d;Xp-2d;Xp-3d;Xp-4d;Xp-5d;Xp-6d;Xp-7d;AXp-0d;AXp-1d;Xp-0dv;Xp-1dv;Xp-2dv;Xp-3dv;Xp-4dv;Xp-5dv;Xp-6dv;Xp-7dv;AXp-0dv;AXp-1dv;SZ;Sm;Sv;Sse;Spe;Sare;Sp;Si;MZ;Mm;Mv;Mse;Mpe;Mare;Mp;Mi;SpAbs_D;SpMax_D;SpDiam_D;SpAD_D;SpMAD_D;LogEE_D;VE1_D;VE2_D;VE3_D;VR1_D;VR2_D;VR3_D;NsCH3;NssCH2;NsssCH;NssssC;SsCH3;SssCH2;SsssCH;SssssC;MAXsCH3;MINsCH3;ECIndex;ETA_alpha;ETA_shape_p;ETA_shape_y;ETA_shape_x;ETA_beta;AETA_beta;ETA_beta_s;AETA_beta_s;ETA_eta;AETA_eta;ETA_eta_L;AETA_eta_L;ETA_eta_R;AETA_eta_R;ETA_eta_RL;AETA_eta_RL;ETA_eta_B;AETA_eta_B;ETA_eta_BR;AETA_eta_BR;ETA_epsilon_1;ETA_epsilon_2;ETA_epsilon_3;ETA_epsilon_4;ETA_epsilon_5;ETA_dBeta;AETA_dBeta;ETA_psi_1;ETA_dPsi_B;fragCpx;IC0;IC1;IC2;IC3;IC4;IC5;TIC0;TIC1;TIC2;TIC3;TIC4;TIC5;SIC0;SIC1;SIC2;SIC3;SIC4;SIC5;BIC0;BIC1;BIC2;BIC3;BIC4;BIC5;CIC0;CIC1;CIC2;CIC3;CIC4;CIC5;MIC0;MIC1;MIC2;MIC3;MIC4;MIC5;ZMIC0;ZMIC1;ZMIC2;ZMIC3;ZMIC4;ZMIC5;Kier1;Lipinski;GhoseFilter;FilterItLogS;VMcGowan;LabuteASA;PEOE_VSA6;PEOE_VSA7;SMR_VSA4;SMR_VSA5;SlogP_VSA4;SlogP_VSA5;EState_VSA3;EState_VSA4;EState_VSA5;EState_VSA7;EState_VSA8;VSA_EState4;VSA_EState5;VSA_EState7;VSA_EState8;MDEC-11;MID;AMID;MID_C;AMID_C;MPC2;MPC3;MPC4;MPC5;MPC6;MPC7;MPC8;MPC9;MPC10;TMPC10;piPC1;piPC2;piPC3;piPC4;piPC5;piPC6;piPC7;piPC8;piPC9;piPC10;TpiPC10;apol;bpol;nRot;RotRatio;SLogP;SMR;GGI1;GGI2;GGI3;GGI4;GGI5;GGI6;GGI7;GGI8;GGI9;GGI10;JGI1;JGI2;JGI3;JGI4;JGI5;JGI6;JGI7;JGI8;JGI9;JGI10;JGT10;Diameter;Radius;TopoShapeIndex;PetitjeanIndex;Vabc;VAdjMat;MWC01;MWC02;MWC03;MWC04;MWC05;MWC06;MWC07;MWC08;MWC09;MWC10;TMWC10;SRW02;SRW04;SRW06;SRW08;SRW10;TSRW10;MW;AMW;WPath;WPol;Zagreb1;Zagreb2;mZagreb1;mZagreb2
359.0;CCCCCCCCCCCCCCCCCCCCC;henicosane;FNAZRRHPUDJQCJ-UHFFFAOYSA-N;25.96365391021148;1.9796428837618647;3.9592857675237294;25.96365391021148;1.2363644719148323;3.8583834018784753;4.2156794448875505;0.2007466402327405;2.1807481200814722;123.56628378653716;5.8841087517398645;5.558715067641833;65.0;21.0;44.0;21.0;78.0;76.0;72.0;68.0;64.0;60.0;56.0;52.0;48.0;122.0;158.0;257.0;304.0;288.0;272.0;256.0;240.0;224.0;94.75;115.5;194.25;245.0;232.75;220.5;208.25;196.0;183.75;800.0;984.0;1201.0;1200.0;1136.0;1072.0;1008.0;944.0;880.0;3074.2533570000005;3417.9942919999994;3759.201114999999;3626.456417999999;3429.699688999999;3232.9429599999994;3036.186230999999;2839.429501999999;2642.6727729999993;10261.539691696853;13518.749155289413;18232.31728639305;19183.794840586528;18176.996495631403;17170.19815067628;16163.399805721154;15156.601460766029;14149.803115810904;453.9632519999999;463.986128;894.8772280000001;1255.2555600000003;1192.37066;1129.48576;1066.60086;1003.71596;940.83106;349.51250000000005;376.89;704.5674999999999;961.185;912.8824999999998;864.5799999999999;816.2774999999999;767.975;719.6724999999999;344.21000000000004;367.0;690.7500000000001;948.0600000000001;900.45;852.84;805.2300000000001;757.62;710.01;78.12986781335601;104.77394963999998;155.415056041225;174.404140187316;165.38261132792;156.361082468524;147.339553609128;138.318024749732;129.296495890336;10799.058166956956;9273.2792211676;19588.082978774026;29758.93990126312;28279.984746224523;26801.029591185925;25322.07443614733;23843.119281108735;22364.164126070136;1.2;1.1875;0.5714285714285714;0.37777777777777777;1.876923076923077;2.46875;2.0396825396825395;1.6888888888888889;1.4576923076923076;1.8046875;1.5416666666666667;1.3611111111111112;12.307692307692308;15.375;9.531746031746032;6.666666666666667;47.2962054923077;53.40616081249999;29.834929484126977;20.146980099999993;157.86984141072082;211.23045555139709;144.70093084438926;106.5766380032585;6.984050030769229;7.24978325;7.102200222222223;6.973642000000002;5.377115384615386;5.88890625;5.591805555555554;5.339916666666666;5.295538461538462;5.734375;5.482142857142858;5.267;1.2019979663593232;1.6370929631249997;1.2334528257240078;0.9689118899295333;166.1393564147224;144.89498783074376;155.46097602201607;165.3274438959062;0.0933407190468651;-0.004436660402071275;-0.04495743241610271;-0.00011355071454189139;-4.171983540040072e-06;-7.018372846572755e-08;-5.563234048780452e-10;-2.1148187367980853e-12;-3.8784080114151465e-15;53.38461538461539;1.7751479289940797;-24.28402366863906;-0.44970414201183484;-0.47337278106508895;-0.49704142011834307;-0.5207100591715972;-0.5443786982248522;-0.5680473372781063;13.44615384615385;1.253017751479287;-5.557159763313612;-0.18934911242603558;-0.20449704142011838;-0.21964497041420117;-0.23479289940828396;-0.24994082840236675;-0.26508875739644955;4.715384615384615;-0.6351479289940837;-1.9521301775147937;0.01893491124260363;0.01798816568047351;0.017041420118343295;0.016094674556213107;0.015147928994082877;0.014201183431952702;355.3846153846153;-11.45562130177518;-165.43786982248523;-1.065088757396449;-1.0887573964497061;-1.112426035502957;-1.1360946745562117;-1.1597633136094672;-1.1834319526627208;1720.9998817846154;-55.475454064852464;-801.1561054747932;-5.157841803550298;-5.2724605102958435;-5.387079217041416;-5.501697923786963;-5.616316630532523;-5.730935337278098;3200.2727695052577;-103.15897572031578;-1489.783988721237;-9.591227081434312;-9.80436546102176;-10.017503840609198;-10.230642220196614;-10.443780599784048;-10.656918979371476;0.33713206153846115;-0.010867260591715373;-0.15694098082840166;-0.0010103857988166022;-0.0010328388165680826;-0.001055291834319566;-0.001077744852071045;-0.0011001978698225272;-0.0011226508875740084;1.7413846153846124;-0.05613254437868984;-0.8106455621301685;-0.005218934911243048;-0.005334911242604039;-0.005450887573965023;-0.005566863905325993;-0.00568284023668697;-0.005798816568047947;1.2793846153846136;-0.04124023668638226;-0.5955763313609386;-0.003834319526627661;-0.003919526627219415;-0.004004733727811157;-0.004089940828402916;-0.00417514792899467;-0.0042603550295864205;14.306708295391932;-0.4611686190456086;-6.660027592921471;-0.04287724763853684;-0.04383007536383776;-0.04478290308913846;-0.04573573081443927;-0.04668855853974008;-0.04764138626504094;77.71426652502878;-2.505075257949399;-36.17737558730047;-0.23290988968541404;-0.23808566501175754;-0.24326144033810101;-0.24843721566444477;-0.25361299099078805;-0.2587887663171309;0.001436011062259463;-6.932281878236367e-05;-0.0003568050191754184;-6.308373030105077e-07;0.821301775147929;0.027736686390532495;-0.19273034657650046;-0.0024983563445101936;0.20686390532544385;0.01957840236686386;-0.04410444256598105;-0.0010519395134779754;0.07254437869822485;-0.009924186390532557;-0.015493096646942806;0.00010519395134779795;5.467455621301774;-0.17899408284023718;-1.3129989668451207;-0.005917159763313605;26.476921258224852;-0.8668039697633197;-6.358381789482486;-0.028654676686390542;49.23496568469627;-1.611858995629934;-11.823682450168548;-0.05328459489685729;0.00518664710059171;-0.0001698009467455527;-0.0012455633399079498;-5.613254437870012e-06;0.026790532544378652;-0.0008770710059170288;-0.00643369493754102;-2.8994082840239155e-05;0.01968284023668636;-0.0006443786982247229;-0.00472679628064237;-2.130177514793145e-05;0.22010320454449125;-0.007205759672587634;-0.052857361848583105;-0.00023820693132520468;1.1956041003850582;-0.03914180090545936;-0.2871220284706386;-0.0012939438315856336;-0.0482745715574705;-0.248469547730371;-0.00043929835889838434;0.033771613832852966;-0.2346644709757102;-0.003041946845981432;-0.13680159053833627;-0.21356715606307788;0.0014500634402755186;-0.03273809523809534;-0.24014807943379377;-0.0010822510822510816;-0.03273809523809547;-0.24014807943379385;-0.0010822510822510825;-0.03273809523809517;-0.2401480794337937;-0.0010822510822510792;-0.032738095238093456;-0.24014807943379293;-0.00108225108225112;-0.0327380952380904;-0.24014807943379146;-0.0010822510822511761;-0.03273809523808872;-0.24014807943379077;-0.0010822510822512085;-0.032738095238095795;-0.24014807943379404;-0.0010822510822510716;-0.03273809523809201;-0.2401480794337922;-0.0010822510822511432;1.5635596262853602;1.4528412382360283;0.9639988868675811;1.4985590778097981;1.5128310690270343;1.0056996477745757;1.6965742251223495;1.2926279810455994;0.8671379372847563;1.547619047619048;1.4649900364186081;0.9754689754689757;1.5476190476190477;1.4649900364186077;0.9754689754689753;1.5476190476190477;1.4649900364186077;0.9754689754689755;1.5476190476190477;1.464990036418608;0.9754689754689755;1.5476190476190468;1.4649900364186075;0.9754689754689752;1.5476190476190481;1.4649900364186081;0.9754689754689756;1.5476190476190483;1.4649900364186084;0.9754689754689758;1.547619047619048;1.464990036418608;0.9754689754689755;0.21454816043617128;-0.1972223627994895;2.2120768228066887;0.9871436102075692;2.2120768228066887;0.9871436102075692;2.0258120876090273;1.3033402383793693;6.214665865976471;5.802836738447234;12.225665865976437;11.813836738447263;20.794192142091976;20.382363014562763;2.960665865976462;2.548836738447242;2.7646658659764602;2.352836738447241;2.7146658659764618;2.302836738447238;1.884665865976463;1.4728367384472398;11.47496586597647;11.063136738447259;2.901443984538413;305.617692323825;152.8088461619125;242.34098346734254;305.617692323825;14.553223443991666;152.8088461619125;4.503673141432702;0.21446062578250963;2.246830662203522;97.71773910807326;4.653225671813012;5.324020454421397;305.617692323825;152.8088461619125;242.34098346734254;305.617692323825;14.553223443991666;152.8088461619125;4.503673141432702;0.21446062578250963;2.246830662203522;97.71773910807326;4.653225671813012;5.324020454421397;305.617692323825;152.8088461619125;242.34098346734254;305.617692323825;14.553223443991666;152.8088461619125;4.503673141432702;0.21446062578250963;2.246830662203522;97.71773910807326;4.653225671813012;5.324020454421397;305.617692323825;152.8088461619125;242.34098346734254;305.617692323825;14.553223443991666;152.8088461619125;4.503673141432702;0.21446062578250963;2.246830662203522;97.71773910807326;4.653225671813012;5.324020454421397;305.617692323825;152.8088461619125;242.34098346734254;305.617692323825;14.553223443991666;152.8088461619125;4.503673141432702;0.21446062578250963;2.246830662203522;97.71773910807326;4.653225671813012;5.324020454421397;305.617692323825;152.8088461619125;242.34098346734254;305.617692323825;14.553223443991666;152.8088461619125;4.503673141432702;0.21446062578250963;2.246830662203522;97.71773910807326;4.653225671813012;5.324020454421397;305.617692323825;152.8088461619125;242.34098346734254;305.617692323825;14.553223443991666;152.8088461619125;4.503673141432702;0.21446062578250963;2.246830662203522;97.71773910807326;4.653225671813012;5.324020454421397;305.617692323825;152.8088461619125;242.34098346734254;305.617692323825;14.553223443991666;152.8088461619125;4.503673141432702;0.21446062578250963;2.246830662203522;97.71773910807326;4.653225671813012;5.324020454421397;143.42124551085624;64.0;20.0;64.0;64.0;0.05686139380083312;0.023179423579360744;2.0;19.0;0.0;0.0;0.0;0.0;0.0;0.0;0.0;0.0;0.0;0.0;0.0;0.0;0.0;0.0;0.0;0.0;15.435028842544408;10.414213562373096;7.010407640085656;4.707106781186548;3.151650429449554;2.103553390593274;1.3990485194281401;0.926776695296637;0.7350013734544957;0.5207106781186548;15.435028842544408;10.414213562373096;7.010407640085656;4.707106781186548;3.151650429449554;2.103553390593274;1.3990485194281401;0.926776695296637;0.7350013734544957;0.5207106781186548;28.33333333333333;24.692615102822415;32.920211683289246;62.53241077931537;58.9607843137255;59.72;38.56819880239521;74.13637221033187;0.43589743589743585;0.37988638619726794;0.5064647951275268;0.9620370889125441;0.9070889894419307;0.9187692307692308;0.593356904652234;1.1405595724666442;305.617692323825;152.8088461619125;242.34098346734254;305.617692323825;14.553223443991666;152.8088461619125;4.503673141432702;0.21446062578250963;2.246830662203522;97.71773910807326;4.653225671813012;5.324020454421397;2.0;19.0;0.0;0.0;4.596163243913024;27.903836756086978;0.0;0.0;2.298081621956512;2.298081621956512;600.0;10.5;0.09523809523809523;0.0;0.0;10.0;0.47619047619047616;10.0;0.47619047619047616;29.27078828176645;1.3938470610364977;10.414213562373096;0.495914931541576;29.27078828176645;1.3938470610364977;10.414213562373096;0.495914931541576;0.0;0.0;0.0;0.0;0.4292307692307692;0.7;0.4292307692307692;0.4292307692307692;0.7;-10.0;-0.47619047619047616;0.7142857142857143;0.00028571428571433355;20.0;0.9076961653608384;1.054281444175082;1.5851695235447782;2.0056467277828203;2.4097184405912744;2.795060805628368;59.0002507484545;68.52829387138033;103.03601903041059;130.36703730588331;156.63169863843282;181.6789523658439;0.1507208117373999;0.17506095225441204;0.2632136682378501;0.3330329182890351;0.4001280751033213;0.4641132678050134;0.1512826942268064;0.17571357402918034;0.26419492059079636;0.33427445463047006;0.40161974009854573;0.465843467604728;5.114671647667616;4.968086368853372;4.437198289483677;4.016721085245634;3.61264937243718;3.2273070074000865;6.709485939641649;8.47012172347953;10.566625680703545;12.494239834367942;14.339998913325388;16.091436474892866;83.12242776833801;77.7510613654583;74.43441938357279;69.02091307203048;62.968834695452806;56.52029927851815;21.0;0.0;0.0;-8.335696179018903;306.75000000000006;136.03809331576176;135.8430852349755;0.0;0.0;135.8430852349755;0.0;135.8430852349755;0.0;0.0;121.99561083559423;0.0;13.847474399381248;0.0;0.0;27.903836756086978;4.596163243913024;0.04999999999999999;40.82842745199548;1.9442108310474038;40.82842745199548;1.9442108310474038;19.0;18.0;17.0;16.0;15.0;14.0;13.0;12.0;11.0;176.0;3.044522437723423;2.995732273553991;2.9444389791664403;2.8903717578961645;2.833213344056216;2.772588722239781;2.70805020110221;2.6390573296152584;2.5649493574615367;2.4849066497880004;5.176149732573829;64.408892;44.141107999999996;18.0;0.9;8.438100000000006;99.0710000000001;0.5;0.22222222222222232;0.125;0.08000000000000002;0.05555555555555555;0.04081632653061225;0.03125;0.02469135802469135;0.020000000000000004;0.01652892561983471;0.025;0.011695906432748543;0.006944444444444444;0.004705882352941178;0.003472222222222222;0.00272108843537415;0.002232142857142857;0.0018993352326685654;0.001666666666666667;0.0015026296018031556;0.061840318246011786;20.0;10.0;1.0;0.5;371.772148648745;5.321928094887363;20.0;4.3694478524670215;5.030437921392435;5.700443573390687;6.371611847231857;7.046647277848756;7.721791776817535;8.399085102935908;9.076237387452702;9.75481351515439;104.4705162546913;3.713572066704308;4.762173934797756;5.932245187448011;7.158513997329321;8.416488487294606;50.98299367357401;296.3443014080011;4.559143098584633;1540.0;18.0;78.0;76.0;6.75;5.5