boiling_point;SMILES;IUPAC_name;InChIKey;SpAbs_A;SpMax_A;SpDiam_A;SpAD_A;SpMAD_A;LogEE_A;VE1_A;VE2_A;VE3_A;VR1_A;VR2_A;VR3_A;nAtom;nHeavyAtom;nH;nC;ATS0dv;ATS1dv;ATS2dv;ATS3dv;ATS4dv;ATS5dv;ATS6dv;ATS7dv;ATS8dv;ATS0d;ATS1d;ATS2d;ATS3d;ATS4d;ATS5d;ATS6d;ATS7d;ATS8d;ATS0s;ATS1s;ATS2s;ATS3s;ATS4s;ATS5s;ATS6s;ATS7s;ATS8s;ATS0Z;ATS1Z;ATS2Z;ATS3Z;ATS4Z;ATS5Z;ATS6Z;ATS7Z;ATS8Z;ATS0m;ATS1m;ATS2m;ATS3m;ATS4m;ATS5m;ATS6m;ATS7m;ATS8m;ATS0v;ATS1v;ATS2v;ATS3v;ATS4v;ATS5v;ATS6v;ATS7v;ATS8v;ATS0se;ATS1se;ATS2se;ATS3se;ATS4se;ATS5se;ATS6se;ATS7se;ATS8se;ATS0pe;ATS1pe;ATS2pe;ATS3pe;ATS4pe;ATS5pe;ATS6pe;ATS7pe;ATS8pe;ATS0are;ATS1are;ATS2are;ATS3are;ATS4are;ATS5are;ATS6are;ATS7are;ATS8are;ATS0p;ATS1p;ATS2p;ATS3p;ATS4p;ATS5p;ATS6p;ATS7p;ATS8p;ATS0i;ATS1i;ATS2i;ATS3i;ATS4i;ATS5i;ATS6i;ATS7i;ATS8i;AATS0dv;AATS1dv;AATS2dv;AATS3dv;AATS0d;AATS1d;AATS2d;AATS3d;AATS0s;AATS1s;AATS2s;AATS3s;AATS0Z;AATS1Z;AATS2Z;AATS3Z;AATS0m;AATS1m;AATS2m;AATS3m;AATS0v;AATS1v;AATS2v;AATS3v;AATS0se;AATS1se;AATS2se;AATS3se;AATS0pe;AATS1pe;AATS2pe;AATS3pe;AATS0are;AATS1are;AATS2are;AATS3are;AATS0p;AATS1p;AATS2p;AATS3p;AATS0i;AATS1i;AATS2i;AATS3i;ATSC0c;ATSC1c;ATSC2c;ATSC3c;ATSC4c;ATSC5c;ATSC6c;ATSC7c;ATSC8c;ATSC0dv;ATSC1dv;ATSC2dv;ATSC3dv;ATSC4dv;ATSC5dv;ATSC6dv;ATSC7dv;ATSC8dv;ATSC0d;ATSC1d;ATSC2d;ATSC3d;ATSC4d;ATSC5d;ATSC6d;ATSC7d;ATSC8d;ATSC0s;ATSC1s;ATSC2s;ATSC3s;ATSC4s;ATSC5s;ATSC6s;ATSC7s;ATSC8s;ATSC0Z;ATSC1Z;ATSC2Z;ATSC3Z;ATSC4Z;ATSC5Z;ATSC6Z;ATSC7Z;ATSC8Z;ATSC0m;ATSC1m;ATSC2m;ATSC3m;ATSC4m;ATSC5m;ATSC6m;ATSC7m;ATSC8m;ATSC0v;ATSC1v;ATSC2v;ATSC3v;ATSC4v;ATSC5v;ATSC6v;ATSC7v;ATSC8v;ATSC0se;ATSC1se;ATSC2se;ATSC3se;ATSC4se;ATSC5se;ATSC6se;ATSC7se;ATSC8se;ATSC0pe;ATSC1pe;ATSC2pe;ATSC3pe;ATSC4pe;ATSC5pe;ATSC6pe;ATSC7pe;ATSC8pe;ATSC0are;ATSC1are;ATSC2are;ATSC3are;ATSC4are;ATSC5are;ATSC6are;ATSC7are;ATSC8are;ATSC0p;ATSC1p;ATSC2p;ATSC3p;ATSC4p;ATSC5p;ATSC6p;ATSC7p;ATSC8p;ATSC0i;ATSC1i;ATSC2i;ATSC3i;ATSC4i;ATSC5i;ATSC6i;ATSC7i;ATSC8i;AATSC0c;AATSC1c;AATSC2c;AATSC3c;AATSC0dv;AATSC1dv;AATSC2dv;AATSC3dv;AATSC0d;AATSC1d;AATSC2d;AATSC3d;AATSC0s;AATSC1s;AATSC2s;AATSC3s;AATSC0Z;AATSC1Z;AATSC2Z;AATSC3Z;AATSC0m;AATSC1m;AATSC2m;AATSC3m;AATSC0v;AATSC1v;AATSC2v;AATSC3v;AATSC0se;AATSC1se;AATSC2se;AATSC3se;AATSC0pe;AATSC1pe;AATSC2pe;AATSC3pe;AATSC0are;AATSC1are;AATSC2are;AATSC3are;AATSC0p;AATSC1p;AATSC2p;AATSC3p;AATSC0i;AATSC1i;AATSC2i;AATSC3i;MATS1c;MATS2c;MATS3c;MATS1dv;MATS2dv;MATS3dv;MATS1s;MATS2s;MATS3s;MATS1Z;MATS2Z;MATS3Z;MATS1m;MATS2m;MATS3m;MATS1v;MATS2v;MATS3v;MATS1se;MATS2se;MATS3se;MATS1pe;MATS2pe;MATS3pe;MATS1are;MATS2are;MATS3are;MATS1p;MATS2p;MATS3p;MATS1i;MATS2i;MATS3i;GATS1c;GATS2c;GATS3c;GATS1dv;GATS2dv;GATS3dv;GATS1s;GATS2s;GATS3s;GATS1Z;GATS2Z;GATS3Z;GATS1m;GATS2m;GATS3m;GATS1v;GATS2v;GATS3v;GATS1se;GATS2se;GATS3se;GATS1pe;GATS2pe;GATS3pe;GATS1are;GATS2are;GATS3are;GATS1p;GATS2p;GATS3p;GATS1i;GATS2i;GATS3i;BCUTc-1h;BCUTc-1l;BCUTdv-1h;BCUTdv-1l;BCUTd-1h;BCUTd-1l;BCUTs-1h;BCUTs-1l;BCUTZ-1h;BCUTZ-1l;BCUTm-1h;BCUTm-1l;BCUTv-1h;BCUTv-1l;BCUTse-1h;BCUTse-1l;BCUTpe-1h;BCUTpe-1l;BCUTare-1h;BCUTare-1l;BCUTp-1h;BCUTp-1l;BCUTi-1h;BCUTi-1l;BalabanJ;SpAbs_DzZ;SpMax_DzZ;SpDiam_DzZ;SpAD_DzZ;SpMAD_DzZ;LogEE_DzZ;VE1_DzZ;VE2_DzZ;VE3_DzZ;VR1_DzZ;VR2_DzZ;VR3_DzZ;SpAbs_Dzm;SpMax_Dzm;SpDiam_Dzm;SpAD_Dzm;SpMAD_Dzm;LogEE_Dzm;VE1_Dzm;VE2_Dzm;VE3_Dzm;VR1_Dzm;VR2_Dzm;VR3_Dzm;SpAbs_Dzv;SpMax_Dzv;SpDiam_Dzv;SpAD_Dzv;SpMAD_Dzv;LogEE_Dzv;VE1_Dzv;VE2_Dzv;VE3_Dzv;VR1_Dzv;VR2_Dzv;VR3_Dzv;SpAbs_Dzse;SpMax_Dzse;SpDiam_Dzse;SpAD_Dzse;SpMAD_Dzse;LogEE_Dzse;VE1_Dzse;VE2_Dzse;VE3_Dzse;VR1_Dzse;VR2_Dzse;VR3_Dzse;SpAbs_Dzpe;SpMax_Dzpe;SpDiam_Dzpe;SpAD_Dzpe;SpMAD_Dzpe;LogEE_Dzpe;VE1_Dzpe;VE2_Dzpe;VE3_Dzpe;VR1_Dzpe;VR2_Dzpe;VR3_Dzpe;SpAbs_Dzare;SpMax_Dzare;SpDiam_Dzare;SpAD_Dzare;SpMAD_Dzare;LogEE_Dzare;VE1_Dzare;VE2_Dzare;VE3_Dzare;VR1_Dzare;VR2_Dzare;VR3_Dzare;SpAbs_Dzp;SpMax_Dzp;SpDiam_Dzp;SpAD_Dzp;SpMAD_Dzp;LogEE_Dzp;VE1_Dzp;VE2_Dzp;VE3_Dzp;VR1_Dzp;VR2_Dzp;VR3_Dzp;SpAbs_Dzi;SpMax_Dzi;SpDiam_Dzi;SpAD_Dzi;SpMAD_Dzi;LogEE_Dzi;VE1_Dzi;VE2_Dzi;VE3_Dzi;VR1_Dzi;VR2_Dzi;VR3_Dzi;BertzCT;nBonds;nBondsO;nBondsS;nBondsKS;RNCG;RPCG;C1SP3;C2SP3;C3SP3;C4SP3;Xc-3d;Xc-4d;Xc-5d;Xc-6d;Xc-3dv;Xc-4dv;Xc-5dv;Xc-6dv;Xpc-4d;Xpc-5d;Xpc-6d;Xpc-4dv;Xpc-5dv;Xpc-6dv;Xp-0d;Xp-1d;Xp-2d;Xp-3d;Xp-4d;Xp-5d;Xp-6d;Xp-7d;AXp-0d;AXp-1d;Xp-0dv;Xp-1dv;Xp-2dv;Xp-3dv;Xp-4dv;Xp-5dv;Xp-6dv;Xp-7dv;AXp-0dv;AXp-1dv;SZ;Sm;Sv;Sse;Spe;Sare;Sp;Si;MZ;Mm;Mv;Mse;Mpe;Mare;Mp;Mi;SpAbs_D;SpMax_D;SpDiam_D;SpAD_D;SpMAD_D;LogEE_D;VE1_D;VE2_D;VE3_D;VR1_D;VR2_D;VR3_D;NsCH3;NssCH2;NsssCH;NssssC;SsCH3;SssCH2;SsssCH;SssssC;MAXsCH3;MINsCH3;ECIndex;ETA_alpha;ETA_shape_p;ETA_shape_y;ETA_shape_x;ETA_beta;AETA_beta;ETA_beta_s;AETA_beta_s;ETA_eta;AETA_eta;ETA_eta_L;AETA_eta_L;ETA_eta_R;AETA_eta_R;ETA_eta_RL;AETA_eta_RL;ETA_eta_B;AETA_eta_B;ETA_eta_BR;AETA_eta_BR;ETA_epsilon_1;ETA_epsilon_2;ETA_epsilon_3;ETA_epsilon_4;ETA_epsilon_5;ETA_dBeta;AETA_dBeta;ETA_psi_1;ETA_dPsi_B;fragCpx;IC0;IC1;IC2;IC3;IC4;IC5;TIC0;TIC1;TIC2;TIC3;TIC4;TIC5;SIC0;SIC1;SIC2;SIC3;SIC4;SIC5;BIC0;BIC1;BIC2;BIC3;BIC4;BIC5;CIC0;CIC1;CIC2;CIC3;CIC4;CIC5;MIC0;MIC1;MIC2;MIC3;MIC4;MIC5;ZMIC0;ZMIC1;ZMIC2;ZMIC3;ZMIC4;ZMIC5;Kier1;Lipinski;GhoseFilter;FilterItLogS;VMcGowan;LabuteASA;PEOE_VSA6;PEOE_VSA7;SMR_VSA4;SMR_VSA5;SlogP_VSA4;SlogP_VSA5;EState_VSA3;EState_VSA4;EState_VSA5;EState_VSA7;EState_VSA8;VSA_EState4;VSA_EState5;VSA_EState7;VSA_EState8;MDEC-11;MID;AMID;MID_C;AMID_C;MPC2;MPC3;MPC4;MPC5;MPC6;MPC7;MPC8;MPC9;MPC10;TMPC10;piPC1;piPC2;piPC3;piPC4;piPC5;piPC6;piPC7;piPC8;piPC9;piPC10;TpiPC10;apol;bpol;nRot;RotRatio;SLogP;SMR;GGI1;GGI2;GGI3;GGI4;GGI5;GGI6;GGI7;GGI8;GGI9;GGI10;JGI1;JGI2;JGI3;JGI4;JGI5;JGI6;JGI7;JGI8;JGI9;JGI10;JGT10;Diameter;Radius;TopoShapeIndex;PetitjeanIndex;Vabc;VAdjMat;MWC01;MWC02;MWC03;MWC04;MWC05;MWC06;MWC07;MWC08;MWC09;MWC10;TMWC10;SRW02;SRW04;SRW06;SRW08;SRW10;TSRW10;MW;AMW;WPath;WPol;Zagreb1;Zagreb2;mZagreb1;mZagreb2
118.5;CCCC(CC)CC;3-ethylhexane;SFRKSDZMZHIISH-UHFFFAOYSA-N;9.445870519314784;2.028523488026883;4.057046976053766;9.445870519314784;1.180733814914348;2.889066675314515;2.5881631328530985;0.3235203916066373;0.7278048576705917;21.551303376831452;2.6939129221039315;2.847292744930115;26.0;8.0;18.0;8.0;28.0;28.0;26.0;19.0;9.0;2.0;0.0;0.0;0.0;46.0;56.0;95.0;107.0;93.0;75.0;45.0;18.0;0.0;40.77777777777778;48.58333333333333;74.08333333333333;89.83333333333333;94.0;89.0;57.0;18.0;0.0;306.0;360.0;433.0;448.0;398.0;263.0;105.0;18.0;0.0;1172.4021199999997;1227.7764309999995;1362.0561429999998;1377.2971029999999;1135.1650849999999;638.8747699999998;178.81516799999997;18.289152;0.0;3947.6426137513827;5029.877406914644;6581.332248221924;7047.588414685877;6597.333587807431;4918.116884214703;2402.6029626669224;559.5073997567447;0.0;181.25648000000004;180.90098799999998;339.41733999999997;440.1943;440.14686800000004;435.285704;307.120896;120.932352;0.0;139.14000000000001;146.4975;265.5175;338.11749999999995;337.8725;328.265;227.04000000000002;87.12;0.0;137.12;142.75;260.67;333.27;333.09000000000003;324.9;225.72000000000003;87.12;0.0;30.314232287281996;39.566097580000005;56.481508443037;63.150702015772;61.137853446074;50.091403729715;28.034757580017;8.003032287282;0.0;4342.872585156481;3643.7663514622;7578.921304906437;10352.686085270172;10341.752259893274;10706.892773564115;7939.7530893550165;3328.5177364364818;0.0;1.0769230769230769;1.12;0.5416666666666666;0.30158730158730157;1.7692307692307692;2.24;1.9791666666666667;1.6984126984126984;1.5683760683760684;1.9433333333333331;1.5434027777777777;1.4259259259259258;11.76923076923077;14.4;9.020833333333334;7.111111111111111;45.09238923076922;49.11105723999998;28.37616964583333;21.861858777777776;151.83240822120703;201.19509627658576;137.1110885046234;111.8664827727917;6.971403076923078;7.236039519999999;7.071194583333333;6.987211111111111;5.351538461538462;5.8599;5.531614583333333;5.366944444444444;5.273846153846154;5.71;5.430625;5.29;1.1659320110493074;1.5826439032000001;1.1766980925632708;1.0023920954884444;167.03356096755698;145.750654058488;157.89419385221746;164.328350559844;0.037278191503284264;-0.006118152530227093;-0.011808475830228215;0.0034595491152529818;-0.008232252372686133;-0.006899092937469089;0.0014037816784647334;0.009555547125250684;0.0;20.461538461538467;5.094674556213021;-5.313609467455619;-7.964497041420117;-11.502958579881659;-2.349112426035505;6.585798816568046;5.218934911242604;0.0;6.615384615384615;2.792899408284023;-2.1360946745562144;-4.337278106508877;-3.5680473372781063;0.5857988165680486;2.396449704142013;0.9585798816568053;0.0;3.0170940170940166;-1.0741288625904004;-0.8200197238658775;0.5611439842209073;-0.09270216962524636;-0.27218934911242615;-0.568047337278107;0.7573964497041416;0.0;138.46153846153845;-11.982248520710044;-34.46745562130176;1.035502958579885;-48.96449704142012;-31.656804733727817;14.201183431952654;42.603550295857985;0.0;670.5194344615384;-58.025720289940644;-166.91349169822468;5.014568420118422;-237.11744957988162;-153.30252027218944;68.7712240473371;206.31367214201168;0.0;1246.8595205864642;-107.90130466613653;-310.38276527419475;9.324804106950069;-440.9300227714953;-285.0725826981872;127.88302775245802;383.64908325737366;0.0;0.13135015384615373;-0.01136684023668524;-0.032697207100590826;0.000982319526627442;-0.0464496804733725;-0.030030911242604114;0.013471810650886486;0.04041543195266192;0.0;0.6784615384615371;-0.058713017751480155;-0.16889053254437913;0.005073964497041214;-0.23992603550295827;-0.1551183431952654;0.06958579881656884;0.20875739644970437;0.0;0.49846153846153785;-0.04313609467455701;-0.12408284023668689;0.0037278106508873976;-0.17627218934911237;-0.11396449704141953;0.051124260355030336;0.15337278106508914;0.0;5.574042193009846;-0.4823690359335448;-1.387555374969332;0.04168621298191122;-1.9711623567160885;-1.2744070825898577;0.5716966351804974;1.7150899055414912;0.0;30.278285659102124;-2.620236258960829;-7.537222818985943;0.2264401705274599;-10.707385206370528;-6.922599498982713;3.105465195805411;9.316395587416082;0.0;0.001433776596280164;-0.0002447261012090837;-0.0002460099131297545;5.49134780198886e-05;0.7869822485207103;0.20378698224852085;-0.11070019723865872;-0.12642058795904948;0.2544378698224852;0.11171597633136092;-0.0445019723865878;-0.06884568423029963;0.1160420775805391;-0.042965154503616015;-0.01708374424720578;0.00890704736858583;5.325443786982248;-0.47928994082840176;-0.7180719921104534;0.01643655489809341;25.789209017751475;-2.3210288115976256;-3.4773644103796806;0.07959632412886385;47.9561354071717;-4.316052186645461;-6.466307609879057;0.14801276360238205;0.005051928994082836;-0.0004546736094674096;-0.0006811918145956422;1.5592373438530823e-05;0.026094674556212966;-0.002348520710059206;-0.003518552761341232;8.053911900065419e-05;0.01917159763313607;-0.0017254437869822802;-0.0025850591715976434;5.9171597633133296e-05;0.21438623819268637;-0.019294761437341792;-0.028907403645194413;0.0006616859203477972;1.1645494484270047;-0.10480945035843316;-0.1570254753955405;0.003594288421070792;-0.17068635507373253;-0.17158176090194976;0.038299884488530424;0.2589473684210527;-0.1406641604010024;-0.16063969447428086;-0.370254957507082;-0.14722025495750707;0.07675704842843654;-0.08999999999999989;-0.13483796296296294;0.00308641975308643;-0.08999999999999972;-0.13483796296296283;0.003086419753086469;-0.09000000000000016;-0.13483796296296302;0.0030864197530864252;-0.08999999999999098;-0.1348379629629594;0.003086419753087123;-0.09000000000000151;-0.13483796296296358;0.0030864197530863;-0.09000000000000176;-0.13483796296296366;0.0030864197530862773;-0.0900000000000001;-0.13483796296296302;0.0030864197530864183;-0.09000000000000234;-0.13483796296296388;0.003086419753086239;1.7063328526067703;1.2586585133733992;0.9076050586250639;1.3684210526315788;1.7054354636591473;1.4351354576918482;1.979461756373938;1.021379249291785;0.6795494401726698;1.625;1.316550925925926;1.0030864197530864;1.6250000000000007;1.3165509259259263;1.0030864197530867;1.6249999999999998;1.3165509259259258;1.0030864197530862;1.625;1.3165509259259258;1.0030864197530864;1.6249999999999998;1.3165509259259256;1.0030864197530864;1.6250000000000002;1.316550925925926;1.0030864197530864;1.6250000000000002;1.3165509259259263;1.0030864197530864;1.625;1.316550925925926;1.0030864197530864;0.2077007058569691;-0.20907113038046887;3.0294591776244495;0.9871364524740551;3.0294591776244495;0.9871364524740551;2.027617882592532;1.218300340228396;6.210633858243674;5.794289865508447;12.22163385824368;11.805289865508438;20.790160134359187;20.37381614162397;2.9566338582436766;2.540289865508451;2.760633858243674;2.344289865508451;2.710633858243675;2.29428986550845;1.8806338582436744;1.4642898655084498;11.470933858243685;11.05458986550844;3.0743734120651833;37.55753690526797;18.778768452633987;27.01415759625064;37.55753690526797;4.694692113158497;18.778768474164337;2.7762098873075525;0.34702623591344406;0.7979430962919447;22.338666902607393;2.792333362825924;2.8831755674311768;37.55753690526797;18.778768452633987;27.01415759625064;37.55753690526797;4.694692113158497;18.778768474164337;2.7762098873075525;0.34702623591344406;0.7979430962919447;22.338666902607393;2.792333362825924;2.8831755674311768;37.55753690526797;18.778768452633987;27.01415759625064;37.55753690526797;4.694692113158497;18.778768474164337;2.7762098873075525;0.34702623591344406;0.7979430962919447;22.338666902607393;2.792333362825924;2.8831755674311768;37.55753690526797;18.778768452633987;27.01415759625064;37.55753690526797;4.694692113158497;18.778768474164337;2.7762098873075525;0.34702623591344406;0.7979430962919447;22.338666902607393;2.792333362825924;2.8831755674311768;37.55753690526797;18.778768452633987;27.01415759625064;37.55753690526797;4.694692113158497;18.778768474164337;2.7762098873075525;0.34702623591344406;0.7979430962919447;22.338666902607393;2.792333362825924;2.8831755674311768;37.55753690526797;18.778768452633987;27.01415759625064;37.55753690526797;4.694692113158497;18.778768474164337;2.7762098873075525;0.34702623591344406;0.7979430962919447;22.338666902607393;2.792333362825924;2.8831755674311768;37.55753690526797;18.778768452633987;27.01415759625064;37.55753690526797;4.694692113158497;18.778768474164337;2.7762098873075525;0.34702623591344406;0.7979430962919447;22.338666902607393;2.792333362825924;2.8831755674311768;37.55753690526797;18.778768452633987;27.01415759625064;37.55753690526797;4.694692113158497;18.778768474164337;2.7762098873075525;0.34702623591344406;0.7979430962919447;22.338666902607393;2.792333362825924;2.8831755674311768;35.302968908806456;25.0;7.0;25.0;25.0;0.14499578644495478;0.06708903612065677;3.0;4.0;1.0;0.0;0.2041241452319315;0.0;0.0;0.0;0.2041241452319315;0.0;0.0;0.0;0.5525858577612694;0.6371368471241508;0.4330127018922193;0.5525858577612694;0.6371368471241508;0.4330127018922193;6.405777393935816;3.8460652149512318;2.4711971193069777;1.8516239634379272;1.105171715522539;0.408248290463863;0.0;0.0;0.800722174241977;0.549437887850176;6.405777393935816;3.8460652149512318;2.4711971193069777;1.8516239634379272;1.105171715522539;0.408248290463863;0.0;0.0;0.800722174241977;0.549437887850176;11.0;9.510615269336444;12.87645023407287;24.990531682447198;23.529411764705884;23.84;15.186990419161678;29.737606813317583;0.4230769230769231;0.36579289497447864;0.4952480859258796;0.9611742954787383;0.904977375565611;0.916923076923077;0.584115016121603;1.1437541082045224;37.55753690526797;18.778768452633987;27.01415759625064;37.55753690526797;4.694692113158497;18.778768474164337;2.7762098873075525;0.34702623591344406;0.7979430962919447;22.338666902607393;2.792333362825924;2.8831755674311768;3.0;4.0;1.0;0.0;6.82537037037037;5.507962962962963;0.9999999999999998;0.0;2.281574074074074;2.2622222222222224;54.0;4.0;0.375;0.125;0.0;3.5;0.4375;3.5;0.4375;8.556792265797883;1.0695990332247354;3.8460652149512313;0.4807581518689039;8.556792265797883;1.0695990332247354;3.8460652149512313;0.4807581518689039;0.0681483474218636;0.00851854342773295;0.0681483474218636;0.00851854342773295;0.4230769230769231;0.7;0.4230769230769231;0.4230769230769231;0.7;-3.5;-0.4375;0.7142857142857143;0.00028571428571433355;7.0;0.8904916402194913;1.322995967059358;2.4202776983278507;2.9877733714879837;3.305645006352999;3.305645006352999;23.152782645706775;34.39789514354331;62.927220156524115;77.68210765868757;85.94677016517798;85.94677016517798;0.1894485821789581;0.2814621708588937;0.5149045288224675;0.635636993695895;0.7032629295499827;0.7032629295499827;0.19175693730143042;0.28489167471905225;0.5211784343488164;0.643381975967891;0.7118319067743046;0.7118319067743046;3.8099480779216;3.3774437510817337;2.280162019813241;1.712666346653108;1.3947947117880926;1.3947947117880926;6.654519640635535;11.849329110309174;15.49454294158166;17.232425779600327;17.552840387544265;17.552840387544265;31.72521615294554;24.13720727697972;22.275173524399023;18.91978248893412;18.159197209368582;18.159197209368582;8.0;1.0;0.0;-2.6520022005496857;123.58000000000004;53.293845828605804;46.454498090775914;5.917906046161393;5.917906046161393;46.454498090775914;5.917906046161393;46.454498090775914;0.0;5.917906046161393;25.683286491704038;0.0;20.771211599071872;0.0;0.9999999999999998;5.507962962962963;6.82537037037037;0.646330407009565;14.66587070178335;1.8332338377229187;14.66587070178335;1.8332338377229187;7.0;7.0;5.0;2.0;0.0;0.0;0.0;0.0;0.0;36.0;2.0794415416798357;2.0794415416798357;2.0794415416798357;1.791759469228055;1.0986122886681098;0.0;0.0;0.0;0.0;0.0;3.6109179126442243;25.362274;18.057726;4.0;0.5714285714285714;3.2227000000000023;38.98;1.5;0.666666666666667;0.375;0.16000000000000003;0.0;0.0;0.0;0.0;0.0;0.0;0.21428571428571425;0.09523809523809527;0.05357142857142856;0.03200000000000001;0.0;0.0;0.0;0.0;0.0;0.0;0.3950952380952381;5.0;3.0;0.6666666666666666;0.4;146.92434073860016;3.807354922057604;7.0;3.367295829986474;4.04305126783455;4.74493212836325;5.442417710521793;6.150602768446279;6.853299093186078;7.562681246721884;8.266935347610456;8.976514972315112;70.40773036498588;2.70805020110221;3.7612001156935624;5.030437921392435;6.38856140554563;7.781138509845015;33.66938815357885;114.14085057599999;4.3900327144615385;72.0;7.0;28.0;28.0;4.111111111111111;2.25