boiling_point;SMILES;IUPAC_name;InChIKey;SpAbs_A;SpMax_A;SpDiam_A;SpAD_A;SpMAD_A;LogEE_A;VE1_A;VE2_A;VE3_A;VR1_A;VR2_A;VR3_A;nAtom;nHeavyAtom;nH;nC;ATS0dv;ATS1dv;ATS2dv;ATS3dv;ATS4dv;ATS5dv;ATS6dv;ATS7dv;ATS8dv;ATS0d;ATS1d;ATS2d;ATS3d;ATS4d;ATS5d;ATS6d;ATS7d;ATS8d;ATS0s;ATS1s;ATS2s;ATS3s;ATS4s;ATS5s;ATS6s;ATS7s;ATS8s;ATS0Z;ATS1Z;ATS2Z;ATS3Z;ATS4Z;ATS5Z;ATS6Z;ATS7Z;ATS8Z;ATS0m;ATS1m;ATS2m;ATS3m;ATS4m;ATS5m;ATS6m;ATS7m;ATS8m;ATS0v;ATS1v;ATS2v;ATS3v;ATS4v;ATS5v;ATS6v;ATS7v;ATS8v;ATS0se;ATS1se;ATS2se;ATS3se;ATS4se;ATS5se;ATS6se;ATS7se;ATS8se;ATS0pe;ATS1pe;ATS2pe;ATS3pe;ATS4pe;ATS5pe;ATS6pe;ATS7pe;ATS8pe;ATS0are;ATS1are;ATS2are;ATS3are;ATS4are;ATS5are;ATS6are;ATS7are;ATS8are;ATS0p;ATS1p;ATS2p;ATS3p;ATS4p;ATS5p;ATS6p;ATS7p;ATS8p;ATS0i;ATS1i;ATS2i;ATS3i;ATS4i;ATS5i;ATS6i;ATS7i;ATS8i;AATS0dv;AATS1dv;AATS2dv;AATS3dv;AATS0d;AATS1d;AATS2d;AATS3d;AATS0s;AATS1s;AATS2s;AATS3s;AATS0Z;AATS1Z;AATS2Z;AATS3Z;AATS0m;AATS1m;AATS2m;AATS3m;AATS0v;AATS1v;AATS2v;AATS3v;AATS0se;AATS1se;AATS2se;AATS3se;AATS0pe;AATS1pe;AATS2pe;AATS3pe;AATS0are;AATS1are;AATS2are;AATS3are;AATS0p;AATS1p;AATS2p;AATS3p;AATS0i;AATS1i;AATS2i;AATS3i;ATSC0c;ATSC1c;ATSC2c;ATSC3c;ATSC4c;ATSC5c;ATSC6c;ATSC7c;ATSC8c;ATSC0dv;ATSC1dv;ATSC2dv;ATSC3dv;ATSC4dv;ATSC5dv;ATSC6dv;ATSC7dv;ATSC8dv;ATSC0d;ATSC1d;ATSC2d;ATSC3d;ATSC4d;ATSC5d;ATSC6d;ATSC7d;ATSC8d;ATSC0s;ATSC1s;ATSC2s;ATSC3s;ATSC4s;ATSC5s;ATSC6s;ATSC7s;ATSC8s;ATSC0Z;ATSC1Z;ATSC2Z;ATSC3Z;ATSC4Z;ATSC5Z;ATSC6Z;ATSC7Z;ATSC8Z;ATSC0m;ATSC1m;ATSC2m;ATSC3m;ATSC4m;ATSC5m;ATSC6m;ATSC7m;ATSC8m;ATSC0v;ATSC1v;ATSC2v;ATSC3v;ATSC4v;ATSC5v;ATSC6v;ATSC7v;ATSC8v;ATSC0se;ATSC1se;ATSC2se;ATSC3se;ATSC4se;ATSC5se;ATSC6se;ATSC7se;ATSC8se;ATSC0pe;ATSC1pe;ATSC2pe;ATSC3pe;ATSC4pe;ATSC5pe;ATSC6pe;ATSC7pe;ATSC8pe;ATSC0are;ATSC1are;ATSC2are;ATSC3are;ATSC4are;ATSC5are;ATSC6are;ATSC7are;ATSC8are;ATSC0p;ATSC1p;ATSC2p;ATSC3p;ATSC4p;ATSC5p;ATSC6p;ATSC7p;ATSC8p;ATSC0i;ATSC1i;ATSC2i;ATSC3i;ATSC4i;ATSC5i;ATSC6i;ATSC7i;ATSC8i;AATSC0c;AATSC1c;AATSC2c;AATSC3c;AATSC0dv;AATSC1dv;AATSC2dv;AATSC3dv;AATSC0d;AATSC1d;AATSC2d;AATSC3d;AATSC0s;AATSC1s;AATSC2s;AATSC3s;AATSC0Z;AATSC1Z;AATSC2Z;AATSC3Z;AATSC0m;AATSC1m;AATSC2m;AATSC3m;AATSC0v;AATSC1v;AATSC2v;AATSC3v;AATSC0se;AATSC1se;AATSC2se;AATSC3se;AATSC0pe;AATSC1pe;AATSC2pe;AATSC3pe;AATSC0are;AATSC1are;AATSC2are;AATSC3are;AATSC0p;AATSC1p;AATSC2p;AATSC3p;AATSC0i;AATSC1i;AATSC2i;AATSC3i;MATS1c;MATS2c;MATS3c;MATS1dv;MATS2dv;MATS3dv;MATS1s;MATS2s;MATS3s;MATS1Z;MATS2Z;MATS3Z;MATS1m;MATS2m;MATS3m;MATS1v;MATS2v;MATS3v;MATS1se;MATS2se;MATS3se;MATS1pe;MATS2pe;MATS3pe;MATS1are;MATS2are;MATS3are;MATS1p;MATS2p;MATS3p;MATS1i;MATS2i;MATS3i;GATS1c;GATS2c;GATS3c;GATS1dv;GATS2dv;GATS3dv;GATS1s;GATS2s;GATS3s;GATS1Z;GATS2Z;GATS3Z;GATS1m;GATS2m;GATS3m;GATS1v;GATS2v;GATS3v;GATS1se;GATS2se;GATS3se;GATS1pe;GATS2pe;GATS3pe;GATS1are;GATS2are;GATS3are;GATS1p;GATS2p;GATS3p;GATS1i;GATS2i;GATS3i;BCUTc-1h;BCUTc-1l;BCUTdv-1h;BCUTdv-1l;BCUTd-1h;BCUTd-1l;BCUTs-1h;BCUTs-1l;BCUTZ-1h;BCUTZ-1l;BCUTm-1h;BCUTm-1l;BCUTv-1h;BCUTv-1l;BCUTse-1h;BCUTse-1l;BCUTpe-1h;BCUTpe-1l;BCUTare-1h;BCUTare-1l;BCUTp-1h;BCUTp-1l;BCUTi-1h;BCUTi-1l;BalabanJ;SpAbs_DzZ;SpMax_DzZ;SpDiam_DzZ;SpAD_DzZ;SpMAD_DzZ;LogEE_DzZ;VE1_DzZ;VE2_DzZ;VE3_DzZ;VR1_DzZ;VR2_DzZ;VR3_DzZ;SpAbs_Dzm;SpMax_Dzm;SpDiam_Dzm;SpAD_Dzm;SpMAD_Dzm;LogEE_Dzm;VE1_Dzm;VE2_Dzm;VE3_Dzm;VR1_Dzm;VR2_Dzm;VR3_Dzm;SpAbs_Dzv;SpMax_Dzv;SpDiam_Dzv;SpAD_Dzv;SpMAD_Dzv;LogEE_Dzv;VE1_Dzv;VE2_Dzv;VE3_Dzv;VR1_Dzv;VR2_Dzv;VR3_Dzv;SpAbs_Dzse;SpMax_Dzse;SpDiam_Dzse;SpAD_Dzse;SpMAD_Dzse;LogEE_Dzse;VE1_Dzse;VE2_Dzse;VE3_Dzse;VR1_Dzse;VR2_Dzse;VR3_Dzse;SpAbs_Dzpe;SpMax_Dzpe;SpDiam_Dzpe;SpAD_Dzpe;SpMAD_Dzpe;LogEE_Dzpe;VE1_Dzpe;VE2_Dzpe;VE3_Dzpe;VR1_Dzpe;VR2_Dzpe;VR3_Dzpe;SpAbs_Dzare;SpMax_Dzare;SpDiam_Dzare;SpAD_Dzare;SpMAD_Dzare;LogEE_Dzare;VE1_Dzare;VE2_Dzare;VE3_Dzare;VR1_Dzare;VR2_Dzare;VR3_Dzare;SpAbs_Dzp;SpMax_Dzp;SpDiam_Dzp;SpAD_Dzp;SpMAD_Dzp;LogEE_Dzp;VE1_Dzp;VE2_Dzp;VE3_Dzp;VR1_Dzp;VR2_Dzp;VR3_Dzp;SpAbs_Dzi;SpMax_Dzi;SpDiam_Dzi;SpAD_Dzi;SpMAD_Dzi;LogEE_Dzi;VE1_Dzi;VE2_Dzi;VE3_Dzi;VR1_Dzi;VR2_Dzi;VR3_Dzi;BertzCT;nBonds;nBondsO;nBondsS;nBondsKS;RNCG;RPCG;C1SP3;C2SP3;C3SP3;C4SP3;Xc-3d;Xc-4d;Xc-5d;Xc-6d;Xc-3dv;Xc-4dv;Xc-5dv;Xc-6dv;Xpc-4d;Xpc-5d;Xpc-6d;Xpc-4dv;Xpc-5dv;Xpc-6dv;Xp-0d;Xp-1d;Xp-2d;Xp-3d;Xp-4d;Xp-5d;Xp-6d;Xp-7d;AXp-0d;AXp-1d;Xp-0dv;Xp-1dv;Xp-2dv;Xp-3dv;Xp-4dv;Xp-5dv;Xp-6dv;Xp-7dv;AXp-0dv;AXp-1dv;SZ;Sm;Sv;Sse;Spe;Sare;Sp;Si;MZ;Mm;Mv;Mse;Mpe;Mare;Mp;Mi;SpAbs_D;SpMax_D;SpDiam_D;SpAD_D;SpMAD_D;LogEE_D;VE1_D;VE2_D;VE3_D;VR1_D;VR2_D;VR3_D;NsCH3;NssCH2;NsssCH;NssssC;SsCH3;SssCH2;SsssCH;SssssC;MAXsCH3;MINsCH3;ECIndex;ETA_alpha;ETA_shape_p;ETA_shape_y;ETA_shape_x;ETA_beta;AETA_beta;ETA_beta_s;AETA_beta_s;ETA_eta;AETA_eta;ETA_eta_L;AETA_eta_L;ETA_eta_R;AETA_eta_R;ETA_eta_RL;AETA_eta_RL;ETA_eta_B;AETA_eta_B;ETA_eta_BR;AETA_eta_BR;ETA_epsilon_1;ETA_epsilon_2;ETA_epsilon_3;ETA_epsilon_4;ETA_epsilon_5;ETA_dBeta;AETA_dBeta;ETA_psi_1;ETA_dPsi_B;fragCpx;IC0;IC1;IC2;IC3;IC4;IC5;TIC0;TIC1;TIC2;TIC3;TIC4;TIC5;SIC0;SIC1;SIC2;SIC3;SIC4;SIC5;BIC0;BIC1;BIC2;BIC3;BIC4;BIC5;CIC0;CIC1;CIC2;CIC3;CIC4;CIC5;MIC0;MIC1;MIC2;MIC3;MIC4;MIC5;ZMIC0;ZMIC1;ZMIC2;ZMIC3;ZMIC4;ZMIC5;Kier1;Lipinski;GhoseFilter;FilterItLogS;VMcGowan;LabuteASA;PEOE_VSA6;PEOE_VSA7;SMR_VSA4;SMR_VSA5;SlogP_VSA4;SlogP_VSA5;EState_VSA3;EState_VSA4;EState_VSA5;EState_VSA7;EState_VSA8;VSA_EState4;VSA_EState5;VSA_EState7;VSA_EState8;MDEC-11;MID;AMID;MID_C;AMID_C;MPC2;MPC3;MPC4;MPC5;MPC6;MPC7;MPC8;MPC9;MPC10;TMPC10;piPC1;piPC2;piPC3;piPC4;piPC5;piPC6;piPC7;piPC8;piPC9;piPC10;TpiPC10;apol;bpol;nRot;RotRatio;SLogP;SMR;GGI1;GGI2;GGI3;GGI4;GGI5;GGI6;GGI7;GGI8;GGI9;GGI10;JGI1;JGI2;JGI3;JGI4;JGI5;JGI6;JGI7;JGI8;JGI9;JGI10;JGT10;Diameter;Radius;TopoShapeIndex;PetitjeanIndex;Vabc;VAdjMat;MWC01;MWC02;MWC03;MWC04;MWC05;MWC06;MWC07;MWC08;MWC09;MWC10;TMWC10;SRW02;SRW04;SRW06;SRW08;SRW10;TSRW10;MW;AMW;WPath;WPol;Zagreb1;Zagreb2;mZagreb1;mZagreb2
167.0;CCCCCCCC(C)C;2-methylnonane;SGVYKUFIHHTIFL-UHFFFAOYSA-N;11.34256363923542;1.9696155060244156;3.9392310120488325;11.34256363923542;1.1342563639235421;3.1142380577880022;2.929791424595335;0.2929791424595335;1.0749312343501853;33.80638547778957;3.3806385477789567;3.5206497041071687;32.0;10.0;22.0;10.0;36.0;34.0;29.0;24.0;20.0;16.0;12.0;7.0;2.0;58.0;70.0;120.0;128.0;121.0;96.0;80.0;63.0;48.0;49.27777777777778;58.91666666666666;93.66666666666666;117.41666666666666;108.16666666666666;86.91666666666666;74.66666666666666;62.33333333333333;51.0;382.0;456.0;555.0;526.0;441.0;368.0;304.0;240.0;176.0;1464.9946180000002;1564.7330249999998;1749.4732169999997;1528.6785429999995;1274.5202459999996;1068.6189409999997;871.8622119999998;675.1054829999998;478.34875399999993;4919.011394973762;6335.857675895377;8408.426471546592;8610.930277717682;7381.968401003399;6095.416356169901;5088.618011214776;4081.8196662596506;3075.0213213045254;223.21136800000002;224.452548;424.876356;565.9166680000001;561.102936;437.75186;374.86695999999995;311.98206;249.09716;171.505;181.9425;333.08250000000004;434.47749999999996;425.115;333.2525;284.95;236.6475;188.345;168.98000000000002;177.25;326.85;428.31;420.3;329.13000000000005;281.52;233.91000000000003;186.3;37.670483906678;49.59807482;71.856888732735;79.180911164866;70.147310018205;57.12426501516799;48.10273615577199;39.081207296376;30.059678436979997;5336.131905433478;4509.845254493801;9427.325702838136;13299.662569970467;13675.736909018206;10532.52288576137;9053.567730722772;7574.612575684176;6095.65742064558;1.125;1.096774193548387;0.48333333333333334;0.2962962962962963;1.8125;2.2580645161290325;2.0;1.5802469135802468;1.5399305555555556;1.9005376344086018;1.561111111111111;1.449588477366255;11.9375;14.709677419354838;9.25;6.493827160493828;45.781081812500005;50.475258870967735;29.157886949999995;18.872574604938265;153.71910609293008;204.3825056740444;140.1404411924432;106.30778120639113;6.975355250000001;7.240404774193548;7.0812726;6.986625530864198;5.35953125;5.8691129032258065;5.551375000000001;5.363919753086419;5.280625000000001;5.717741935483871;5.447500000000001;5.2877777777777775;1.1772026220836875;1.5999378974193548;1.19761481221225;0.9775421131464939;166.7541220447962;145.4788791772194;157.12209504730225;164.1933650613638;0.04575574403421427;-0.005538604808735135;-0.013292998003751126;-0.011884063461912616;0.0049905482245385675;-5.9759284031864375e-06;-8.329789942297726e-06;0.00031761304395533244;0.0012709830935636085;25.875;3.30859375;-12.765625;-4.37109375;1.75390625;-1.19140625;-1.2890625;-2.38671875;-3.484375;8.0;0.9375;-3.75;-0.4375;0.0625;-0.5625;-0.625;-1.6875;-0.75;3.3576388888888893;-1.216254340277776;0.07942708333333443;-1.1396484374999998;0.391601562499999;0.030273437499999584;0.02148437499999961;-0.07063802083333365;0.8372395833333333;171.875;-11.81640625;-50.390625;-49.12109375;19.62890625;-2.44140625;-2.5390625;-2.63671875;-2.734375;832.3288118749999;-57.22260581640611;-244.02367439062482;-237.87579112109367;95.05573362890617;-11.822852441406297;-12.295766539062523;-12.768680636718784;-13.241594734375035;1547.7509673946556;-106.40787900838227;-453.7724427134329;-442.3401912497226;176.76019570813955;-21.985098968674123;-22.864502927421114;-23.743906886168077;-24.623310844915046;0.1630474999999998;-0.011209515625000693;-0.04780256250000051;-0.04659823437500006;0.01862076562500027;-0.002316015624999881;-0.0024086562499998675;-0.002501296874999859;-0.0025939374999998472;0.8421874999999983;-0.05790039062500069;-0.24691406250000014;-0.24069335937499964;0.09618164062500012;-0.011962890624999861;-0.012441406249999835;-0.012919921874999823;-0.013398437499999805;0.6187499999999992;-0.0425390625000003;-0.18140625000000007;-0.17683593749999982;0.07066406250000004;-0.008789062499999944;-0.009140624999999923;-0.009492187499999923;-0.009843749999999915;6.919166958336874;-0.4756927283856631;-2.028573949148768;-1.9774664659337775;0.7902003174009742;-0.09828362156728465;-0.10221496642997596;-0.10614631129266727;-0.11007765615535853;37.58502473308684;-2.5839704503997742;-11.019245887655048;-10.741629227694713;4.292380665540053;-0.5338781922313398;-0.5552333199205914;-0.5765884476098444;-0.5979435752990977;0.001429867001069196;-0.0001786646712495205;-0.00022154996672918545;-0.00014671683286311872;0.80859375;0.1067288306451613;-0.21276041666666667;-0.05396412037037037;0.25;0.03024193548387097;-0.0625;-0.005401234567901234;0.10492621527777779;-0.03923401097670245;0.0013237847222222405;-0.014069733796296294;5.37109375;-0.3811743951612903;-0.83984375;-0.6064332561728395;26.010275371093748;-1.8458905102066487;-4.067061239843747;-2.936738161988811;48.36721773108299;-3.4325122260768475;-7.562874045223881;-5.460990015428674;0.005095234374999993;-0.00036159727822582884;-0.0007967093750000085;-0.0005752868441358032;0.026318359374999947;-0.001867754536290345;-0.004115234375000002;-0.0029715229552469092;0.019335937499999976;-0.0013722278225806548;-0.0030234375000000014;-0.00218315972222222;0.2162239674480273;-0.015344926722118166;-0.03380956581914614;-0.02441316624609602;1.1745320229089637;-0.08335388549676691;-0.18365409812758413;-0.13261270651474955;-0.12495195085691352;-0.15494445746598773;-0.10260872707280459;0.13199314321333958;-0.2631239935587762;-0.06673823582036142;-0.37392000533742475;0.012616339193381764;-0.1340916925198207;-0.07096774193548387;-0.15636363636363637;-0.11290684624017958;-0.0709677419354837;-0.1563636363636363;-0.11290684624017955;-0.07096774193548366;-0.1563636363636363;-0.11290684624017958;-0.07096774193548835;-0.15636363636363823;-0.11290684624017987;-0.07096774193548486;-0.15636363636363676;-0.11290684624017963;-0.07096774193548445;-0.15636363636363662;-0.1129068462401796;-0.07096774193548433;-0.15636363636363662;-0.1129068462401796;-0.07096774193548536;-0.15636363636363695;-0.11290684624017966;1.6536827356587258;1.2903637923258395;1.1092581113637245;1.468599033816425;1.7571658615136874;1.0205761316872428;1.977249224405377;0.8976215098241984;1.111340916925198;1.6;1.3527272727272728;1.1133557800224467;1.6000000000000003;1.3527272727272728;1.113355780022447;1.6000000000000005;1.352727272727273;1.113355780022447;1.6;1.3527272727272728;1.1133557800224467;1.6;1.3527272727272728;1.1133557800224467;1.6000000000000003;1.3527272727272728;1.113355780022447;1.6;1.352727272727273;1.113355780022447;1.5999999999999999;1.3527272727272723;1.1133557800224467;0.2054906693168933;-0.20526955546861067;3.0219110321525786;0.9871398320999267;3.0219110321525786;0.9871398320999267;2.036921919620605;1.251275131781543;6.208047415735052;5.798521620550054;12.21904741573506;11.809521620550054;20.787573691850557;20.378047896665585;2.954047415735058;2.544521620550054;2.7580474157350583;2.3485216205500543;2.708047415735055;2.2985216205500523;1.8780474157350564;1.468521620550051;11.468347415735051;11.058821620550049;2.7731888559274704;65.55536274170555;32.77768137085277;52.2367885154174;65.55536274170555;6.555536274170555;32.77768137085279;3.113283961000101;0.31132839610001006;1.1356781050957512;30.802416151193086;3.0802416151193084;3.4275931333700735;65.55536274170555;32.77768137085277;52.2367885154174;65.55536274170555;6.555536274170555;32.77768137085279;3.113283961000101;0.31132839610001006;1.1356781050957512;30.802416151193086;3.0802416151193084;3.4275931333700735;65.55536274170555;32.77768137085277;52.2367885154174;65.55536274170555;6.555536274170555;32.77768137085279;3.113283961000101;0.31132839610001006;1.1356781050957512;30.802416151193086;3.0802416151193084;3.4275931333700735;65.55536274170555;32.77768137085277;52.2367885154174;65.55536274170555;6.555536274170555;32.77768137085279;3.113283961000101;0.31132839610001006;1.1356781050957512;30.802416151193086;3.0802416151193084;3.4275931333700735;65.55536274170555;32.77768137085277;52.2367885154174;65.55536274170555;6.555536274170555;32.77768137085279;3.113283961000101;0.31132839610001006;1.1356781050957512;30.802416151193086;3.0802416151193084;3.4275931333700735;65.55536274170555;32.77768137085277;52.2367885154174;65.55536274170555;6.555536274170555;32.77768137085279;3.113283961000101;0.31132839610001006;1.1356781050957512;30.802416151193086;3.0802416151193084;3.4275931333700735;65.55536274170555;32.77768137085277;52.2367885154174;65.55536274170555;6.555536274170555;32.77768137085279;3.113283961000101;0.31132839610001006;1.1356781050957512;30.802416151193086;3.0802416151193084;3.4275931333700735;65.55536274170555;32.77768137085277;52.2367885154174;65.55536274170555;6.555536274170555;32.77768137085279;3.113283961000101;0.31132839610001006;1.1356781050957512;30.802416151193086;3.0802416151193084;3.4275931333700735;55.058650025961626;31.0;9.0;31.0;31.0;0.11707798764215142;0.05318604902423733;3.0;6.0;1.0;0.0;0.408248290463863;0.0;0.0;0.0;0.408248290463863;0.0;0.0;0.0;0.28867513459481287;0.2041241452319315;0.14433756729740643;0.28867513459481287;0.2041241452319315;0.14433756729740643;7.819990956308912;4.770055610029662;3.59673554708526;1.885027805014831;1.1561392483545432;0.6925139025074155;0.4012929288806347;0.21650635094610965;0.7819990956308912;0.5300061788921846;7.819990956308912;4.770055610029662;3.59673554708526;1.885027805014831;1.1561392483545432;0.6925139025074155;0.4012929288806347;0.21650635094610965;0.7819990956308912;0.5300061788921846;13.666666666666668;11.846307551411208;15.96010584164462;30.766205389657685;28.98039215686275;29.360000000000003;18.784099401197608;36.568186105165935;0.42708333333333337;0.37019711098160024;0.49875330755139435;0.9614439184268027;0.9056372549019609;0.9175000000000001;0.5870031062874252;1.1427558157864355;65.55536274170555;32.77768137085277;52.2367885154174;65.55536274170555;6.555536274170555;32.77768137085279;3.113283961000101;0.31132839610001006;1.1356781050957512;30.802416151193086;3.0802416151193084;3.4275931333700735;3.0;6.0;1.0;0.0;6.877070578231292;8.551978930461074;0.9042838246409673;0.0;2.305377692743764;2.266315192743764;111.0;5.0;0.3;0.1;0.0;4.5;0.45;4.5;0.45;11.322439248158418;1.1322439248158418;4.770055610029662;0.47700556100296615;11.322439248158418;1.1322439248158418;4.770055610029662;0.47700556100296615;0.14415795234343332;0.014415795234343332;0.14415795234343332;0.014415795234343332;0.425;0.7;0.425;0.425;0.7;-4.5;-0.45;0.7142857142857143;0.00028571428571433355;9.0;0.8960382325345574;1.300870058859033;2.451597655573916;3.366729296672175;3.804229296672175;3.929229296672175;28.673223441105836;41.627841883489054;78.45112497836531;107.7353374935096;121.7353374935096;125.7353374935096;0.17920764650691148;0.2601740117718066;0.4903195311147832;0.673345859334435;0.760845859334435;0.7858458593344351;0.1808644987797396;0.26257943314269827;0.49485274744441243;0.679571233302474;0.7678802086821428;0.7931113445049053;4.103961767465442;3.699129941140967;2.548402344426084;1.6332707033278249;1.1957707033278249;1.0707707033278249;6.673151904630568;11.535586970613844;16.224960436818506;19.21047563104555;20.33916313104555;20.46516313104555;39.639944988972836;31.177975668276126;26.906296086853942;20.458646483360873;17.833646483360873;17.333646483360873;10.0;1.0;0.0;-3.493302638111995;151.76000000000002;66.02373005739902;59.296141336627926;5.917906046161393;5.917906046161393;59.296141336627926;5.917906046161393;59.296141336627926;0.0;5.917906046161393;38.524929737556064;0.0;20.771211599071872;0.0;0.9042838246409673;8.551978930461074;6.877070578231292;0.5952753944880748;18.662654583954428;1.8662654583954428;18.662654583954428;1.8662654583954428;9.0;7.0;6.0;5.0;4.0;3.0;2.0;0.0;0.0;55.0;2.302585092994046;2.302585092994046;2.0794415416798357;1.9459101490553132;1.791759469228055;1.6094379124341003;1.3862943611198906;1.0986122886681098;0.0;0.0;4.02535169073515;31.369446;22.070553999999998;6.0;0.6666666666666666;4.002900000000003;48.21400000000003;1.5;0.44444444444444464;0.25;0.16000000000000003;0.1111111111111111;0.0816326530612245;0.0625;0.0;0.0;0.0;0.16666666666666666;0.04938271604938274;0.03571428571428571;0.026666666666666672;0.02222222222222222;0.020408163265306124;0.020833333333333332;0.0;0.0;0.0;0.3418940539178634;8.0;4.0;1.0;0.5;181.5163111863147;4.169925001442312;9.0;3.6109179126442243;4.23410650459726;4.919980925828125;5.564520407322694;6.255750041753367;6.90875477931522;7.601402334583733;8.258163361537619;8.951180966457603;75.30477723403985;2.9444389791664403;4.007333185232471;5.198497031265826;6.447305862541213;7.727094484779841;36.324669542985795;142.172150704;4.4428797095;158.0;7.0;36.0;34.0;4.611111111111111;2.5833333333333335