boiling_point;SMILES;IUPAC_name;InChIKey;SpAbs_A;SpMax_A;SpDiam_A;SpAD_A;SpMAD_A;LogEE_A;VE1_A;VE2_A;VE3_A;VR1_A;VR2_A;VR3_A;nAtom;nHeavyAtom;nH;nC;ATS0dv;ATS1dv;ATS2dv;ATS3dv;ATS4dv;ATS5dv;ATS6dv;ATS7dv;ATS8dv;ATS0d;ATS1d;ATS2d;ATS3d;ATS4d;ATS5d;ATS6d;ATS7d;ATS8d;ATS0s;ATS1s;ATS2s;ATS3s;ATS4s;ATS5s;ATS6s;ATS7s;ATS8s;ATS0Z;ATS1Z;ATS2Z;ATS3Z;ATS4Z;ATS5Z;ATS6Z;ATS7Z;ATS8Z;ATS0m;ATS1m;ATS2m;ATS3m;ATS4m;ATS5m;ATS6m;ATS7m;ATS8m;ATS0v;ATS1v;ATS2v;ATS3v;ATS4v;ATS5v;ATS6v;ATS7v;ATS8v;ATS0se;ATS1se;ATS2se;ATS3se;ATS4se;ATS5se;ATS6se;ATS7se;ATS8se;ATS0pe;ATS1pe;ATS2pe;ATS3pe;ATS4pe;ATS5pe;ATS6pe;ATS7pe;ATS8pe;ATS0are;ATS1are;ATS2are;ATS3are;ATS4are;ATS5are;ATS6are;ATS7are;ATS8are;ATS0p;ATS1p;ATS2p;ATS3p;ATS4p;ATS5p;ATS6p;ATS7p;ATS8p;ATS0i;ATS1i;ATS2i;ATS3i;ATS4i;ATS5i;ATS6i;ATS7i;ATS8i;AATS0dv;AATS1dv;AATS2dv;AATS3dv;AATS0d;AATS1d;AATS2d;AATS3d;AATS0s;AATS1s;AATS2s;AATS3s;AATS0Z;AATS1Z;AATS2Z;AATS3Z;AATS0m;AATS1m;AATS2m;AATS3m;AATS0v;AATS1v;AATS2v;AATS3v;AATS0se;AATS1se;AATS2se;AATS3se;AATS0pe;AATS1pe;AATS2pe;AATS3pe;AATS0are;AATS1are;AATS2are;AATS3are;AATS0p;AATS1p;AATS2p;AATS3p;AATS0i;AATS1i;AATS2i;AATS3i;ATSC0c;ATSC1c;ATSC2c;ATSC3c;ATSC4c;ATSC5c;ATSC6c;ATSC7c;ATSC8c;ATSC0dv;ATSC1dv;ATSC2dv;ATSC3dv;ATSC4dv;ATSC5dv;ATSC6dv;ATSC7dv;ATSC8dv;ATSC0d;ATSC1d;ATSC2d;ATSC3d;ATSC4d;ATSC5d;ATSC6d;ATSC7d;ATSC8d;ATSC0s;ATSC1s;ATSC2s;ATSC3s;ATSC4s;ATSC5s;ATSC6s;ATSC7s;ATSC8s;ATSC0Z;ATSC1Z;ATSC2Z;ATSC3Z;ATSC4Z;ATSC5Z;ATSC6Z;ATSC7Z;ATSC8Z;ATSC0m;ATSC1m;ATSC2m;ATSC3m;ATSC4m;ATSC5m;ATSC6m;ATSC7m;ATSC8m;ATSC0v;ATSC1v;ATSC2v;ATSC3v;ATSC4v;ATSC5v;ATSC6v;ATSC7v;ATSC8v;ATSC0se;ATSC1se;ATSC2se;ATSC3se;ATSC4se;ATSC5se;ATSC6se;ATSC7se;ATSC8se;ATSC0pe;ATSC1pe;ATSC2pe;ATSC3pe;ATSC4pe;ATSC5pe;ATSC6pe;ATSC7pe;ATSC8pe;ATSC0are;ATSC1are;ATSC2are;ATSC3are;ATSC4are;ATSC5are;ATSC6are;ATSC7are;ATSC8are;ATSC0p;ATSC1p;ATSC2p;ATSC3p;ATSC4p;ATSC5p;ATSC6p;ATSC7p;ATSC8p;ATSC0i;ATSC1i;ATSC2i;ATSC3i;ATSC4i;ATSC5i;ATSC6i;ATSC7i;ATSC8i;AATSC0c;AATSC1c;AATSC2c;AATSC3c;AATSC0dv;AATSC1dv;AATSC2dv;AATSC3dv;AATSC0d;AATSC1d;AATSC2d;AATSC3d;AATSC0s;AATSC1s;AATSC2s;AATSC3s;AATSC0Z;AATSC1Z;AATSC2Z;AATSC3Z;AATSC0m;AATSC1m;AATSC2m;AATSC3m;AATSC0v;AATSC1v;AATSC2v;AATSC3v;AATSC0se;AATSC1se;AATSC2se;AATSC3se;AATSC0pe;AATSC1pe;AATSC2pe;AATSC3pe;AATSC0are;AATSC1are;AATSC2are;AATSC3are;AATSC0p;AATSC1p;AATSC2p;AATSC3p;AATSC0i;AATSC1i;AATSC2i;AATSC3i;MATS1c;MATS2c;MATS3c;MATS1dv;MATS2dv;MATS3dv;MATS1s;MATS2s;MATS3s;MATS1Z;MATS2Z;MATS3Z;MATS1m;MATS2m;MATS3m;MATS1v;MATS2v;MATS3v;MATS1se;MATS2se;MATS3se;MATS1pe;MATS2pe;MATS3pe;MATS1are;MATS2are;MATS3are;MATS1p;MATS2p;MATS3p;MATS1i;MATS2i;MATS3i;GATS1c;GATS2c;GATS3c;GATS1dv;GATS2dv;GATS3dv;GATS1s;GATS2s;GATS3s;GATS1Z;GATS2Z;GATS3Z;GATS1m;GATS2m;GATS3m;GATS1v;GATS2v;GATS3v;GATS1se;GATS2se;GATS3se;GATS1pe;GATS2pe;GATS3pe;GATS1are;GATS2are;GATS3are;GATS1p;GATS2p;GATS3p;GATS1i;GATS2i;GATS3i;BCUTc-1h;BCUTc-1l;BCUTdv-1h;BCUTdv-1l;BCUTd-1h;BCUTd-1l;BCUTs-1h;BCUTs-1l;BCUTZ-1h;BCUTZ-1l;BCUTm-1h;BCUTm-1l;BCUTv-1h;BCUTv-1l;BCUTse-1h;BCUTse-1l;BCUTpe-1h;BCUTpe-1l;BCUTare-1h;BCUTare-1l;BCUTp-1h;BCUTp-1l;BCUTi-1h;BCUTi-1l;BalabanJ;SpAbs_DzZ;SpMax_DzZ;SpDiam_DzZ;SpAD_DzZ;SpMAD_DzZ;LogEE_DzZ;VE1_DzZ;VE2_DzZ;VE3_DzZ;VR1_DzZ;VR2_DzZ;VR3_DzZ;SpAbs_Dzm;SpMax_Dzm;SpDiam_Dzm;SpAD_Dzm;SpMAD_Dzm;LogEE_Dzm;VE1_Dzm;VE2_Dzm;VE3_Dzm;VR1_Dzm;VR2_Dzm;VR3_Dzm;SpAbs_Dzv;SpMax_Dzv;SpDiam_Dzv;SpAD_Dzv;SpMAD_Dzv;LogEE_Dzv;VE1_Dzv;VE2_Dzv;VE3_Dzv;VR1_Dzv;VR2_Dzv;VR3_Dzv;SpAbs_Dzse;SpMax_Dzse;SpDiam_Dzse;SpAD_Dzse;SpMAD_Dzse;LogEE_Dzse;VE1_Dzse;VE2_Dzse;VE3_Dzse;VR1_Dzse;VR2_Dzse;VR3_Dzse;SpAbs_Dzpe;SpMax_Dzpe;SpDiam_Dzpe;SpAD_Dzpe;SpMAD_Dzpe;LogEE_Dzpe;VE1_Dzpe;VE2_Dzpe;VE3_Dzpe;VR1_Dzpe;VR2_Dzpe;VR3_Dzpe;SpAbs_Dzare;SpMax_Dzare;SpDiam_Dzare;SpAD_Dzare;SpMAD_Dzare;LogEE_Dzare;VE1_Dzare;VE2_Dzare;VE3_Dzare;VR1_Dzare;VR2_Dzare;VR3_Dzare;SpAbs_Dzp;SpMax_Dzp;SpDiam_Dzp;SpAD_Dzp;SpMAD_Dzp;LogEE_Dzp;VE1_Dzp;VE2_Dzp;VE3_Dzp;VR1_Dzp;VR2_Dzp;VR3_Dzp;SpAbs_Dzi;SpMax_Dzi;SpDiam_Dzi;SpAD_Dzi;SpMAD_Dzi;LogEE_Dzi;VE1_Dzi;VE2_Dzi;VE3_Dzi;VR1_Dzi;VR2_Dzi;VR3_Dzi;BertzCT;nBonds;nBondsO;nBondsS;nBondsKS;RNCG;RPCG;C1SP3;C2SP3;C3SP3;C4SP3;Xc-3d;Xc-4d;Xc-5d;Xc-6d;Xc-3dv;Xc-4dv;Xc-5dv;Xc-6dv;Xpc-4d;Xpc-5d;Xpc-6d;Xpc-4dv;Xpc-5dv;Xpc-6dv;Xp-0d;Xp-1d;Xp-2d;Xp-3d;Xp-4d;Xp-5d;Xp-6d;Xp-7d;AXp-0d;AXp-1d;Xp-0dv;Xp-1dv;Xp-2dv;Xp-3dv;Xp-4dv;Xp-5dv;Xp-6dv;Xp-7dv;AXp-0dv;AXp-1dv;SZ;Sm;Sv;Sse;Spe;Sare;Sp;Si;MZ;Mm;Mv;Mse;Mpe;Mare;Mp;Mi;SpAbs_D;SpMax_D;SpDiam_D;SpAD_D;SpMAD_D;LogEE_D;VE1_D;VE2_D;VE3_D;VR1_D;VR2_D;VR3_D;NsCH3;NssCH2;NsssCH;NssssC;SsCH3;SssCH2;SsssCH;SssssC;MAXsCH3;MINsCH3;ECIndex;ETA_alpha;ETA_shape_p;ETA_shape_y;ETA_shape_x;ETA_beta;AETA_beta;ETA_beta_s;AETA_beta_s;ETA_eta;AETA_eta;ETA_eta_L;AETA_eta_L;ETA_eta_R;AETA_eta_R;ETA_eta_RL;AETA_eta_RL;ETA_eta_B;AETA_eta_B;ETA_eta_BR;AETA_eta_BR;ETA_epsilon_1;ETA_epsilon_2;ETA_epsilon_3;ETA_epsilon_4;ETA_epsilon_5;ETA_dBeta;AETA_dBeta;ETA_psi_1;ETA_dPsi_B;fragCpx;IC0;IC1;IC2;IC3;IC4;IC5;TIC0;TIC1;TIC2;TIC3;TIC4;TIC5;SIC0;SIC1;SIC2;SIC3;SIC4;SIC5;BIC0;BIC1;BIC2;BIC3;BIC4;BIC5;CIC0;CIC1;CIC2;CIC3;CIC4;CIC5;MIC0;MIC1;MIC2;MIC3;MIC4;MIC5;ZMIC0;ZMIC1;ZMIC2;ZMIC3;ZMIC4;ZMIC5;Kier1;Lipinski;GhoseFilter;FilterItLogS;VMcGowan;LabuteASA;PEOE_VSA6;PEOE_VSA7;SMR_VSA4;SMR_VSA5;SlogP_VSA4;SlogP_VSA5;EState_VSA3;EState_VSA4;EState_VSA5;EState_VSA7;EState_VSA8;VSA_EState4;VSA_EState5;VSA_EState7;VSA_EState8;MDEC-11;MID;AMID;MID_C;AMID_C;MPC2;MPC3;MPC4;MPC5;MPC6;MPC7;MPC8;MPC9;MPC10;TMPC10;piPC1;piPC2;piPC3;piPC4;piPC5;piPC6;piPC7;piPC8;piPC9;piPC10;TpiPC10;apol;bpol;nRot;RotRatio;SLogP;SMR;GGI1;GGI2;GGI3;GGI4;GGI5;GGI6;GGI7;GGI8;GGI9;GGI10;JGI1;JGI2;JGI3;JGI4;JGI5;JGI6;JGI7;JGI8;JGI9;JGI10;JGT10;Diameter;Radius;TopoShapeIndex;PetitjeanIndex;Vabc;VAdjMat;MWC01;MWC02;MWC03;MWC04;MWC05;MWC06;MWC07;MWC08;MWC09;MWC10;TMWC10;SRW02;SRW04;SRW06;SRW08;SRW10;TSRW10;MW;AMW;WPath;WPol;Zagreb1;Zagreb2;mZagreb1;mZagreb2
118.9;CCCCC(C)CC;3-methylheptane;LAIUFBWHERIJIH-UHFFFAOYSA-N;9.409260218956907;1.9890437907365464;3.9780875814730927;9.409260218956907;1.1761575273696134;2.8885201090950563;2.6040468064239537;0.3255058508029942;0.7339231476877545;22.129319059014026;2.7661648823767533;2.873759832235306;26.0;8.0;18.0;8.0;28.0;27.0;23.0;17.0;11.0;5.0;1.0;0.0;0.0;46.0;55.0;94.0;102.0;88.0;72.0;42.0;27.0;9.0;40.77777777777778;48.5;74.5;91.91666666666666;89.58333333333334;72.0;52.0;33.0;9.0;306.0;360.0;433.0;423.0;343.0;249.0;151.0;57.0;9.0;1172.4021199999997;1227.7764309999995;1362.0561429999998;1256.2310939999998;947.5529319999998;684.250059;357.282745;93.979872;9.144576;3947.6426137513827;5029.877406914644;6581.332248221923;6822.461001246655;5870.288942730678;4361.573366138024;2849.893907865303;1341.1783312726475;279.75369987837234;181.25648000000004;180.900988;339.41733999999997;440.170584;437.72814400000004;372.448236;249.073444;183.793536;60.466176;139.14000000000001;146.4975;265.5174999999999;337.995;333.13000000000005;280.2075;188.22250000000003;135.3;43.56000000000001;137.12;142.75;260.67;333.18;329.04;277.46999999999997;186.21000000000004;134.64000000000001;43.56000000000001;30.314232287281996;39.56609758;56.481508443037;62.144277730923;56.117840730319;43.082723440017006;29.053254152131;16.018136861829;4.001516143640999;4342.872585156481;3643.7663514622;7578.921304906437;10347.219172581725;10527.055973072918;9238.871443902417;6090.190507957131;4802.0059787866285;1664.2588682182407;1.0769230769230769;1.08;0.4791666666666667;0.2698412698412698;1.7692307692307692;2.2;1.9583333333333333;1.619047619047619;1.5683760683760684;1.94;1.5520833333333333;1.4589947089947088;11.76923076923077;14.4;9.020833333333334;6.714285714285714;45.09238923076922;49.11105723999998;28.37616964583333;19.94017609523809;151.83240822120703;201.19509627658576;137.11108850462338;108.29303176581992;6.971403076923078;7.23603952;7.071194583333333;6.986834666666667;5.351538461538462;5.8599;5.531614583333332;5.365;5.273846153846154;5.71;5.430625;5.288571428571428;1.1659320110493074;1.5826439032;1.1766980925632708;0.9864171068400477;167.03356096755698;145.750654058488;157.89419385221746;164.24157416796388;0.03724616462212016;-0.005829401917203743;-0.010266850173708406;-0.0037541358662823766;-0.006248288760809441;0.006439365938800897;-0.0068834969533444305;0.0031420211556254956;0.004777704265861925;20.461538461538467;4.094674556213022;-8.31360946745562;-6.733727810650888;-3.0414201183431957;-1.958579881656806;-1.485207100591717;4.597633136094673;2.609467455621302;6.615384615384615;1.7928994082840233;-3.1360946745562144;-1.9526627218934918;-1.1834319526627213;-1.278106508875739;0.5325443786982256;1.437869822485208;0.47928994082840265;3.0170940170940166;-1.157462195923734;-0.4033530571992108;0.23422090729783043;-0.8939842209072979;0.9901380670611436;-0.5621301775147929;-0.09467455621301807;0.3786982248520708;138.46153846153845;-11.982248520710044;-34.46745562130177;-23.964497041420117;-27.810650887573964;18.19526627218935;-28.254437869822485;17.75147928994082;21.301775147928993;670.5194344615384;-58.02572028994064;-166.91349169822468;-116.05144057988159;-134.67698042603553;88.11313081065077;-136.82608117751482;85.96403005917148;103.15683607100584;1246.8595205864642;-107.9013046661365;-310.3827652741947;-215.80260933227265;-250.4375960152299;163.85012930783677;-254.43394063249426;159.8537846905724;191.82454162868683;0.13135015384615373;-0.01136684023668524;-0.032697207100590826;-0.022733680473372535;-0.02638229585798832;0.01726075739644905;-0.026803289940828656;0.016839763313608723;0.02020771597633096;0.6784615384615371;-0.05871301775148015;-0.16889053254437908;-0.11742603550295855;-0.13627218934911198;0.0891568047337282;-0.13844674556212966;0.08698224852071051;0.10437869822485218;0.49846153846153785;-0.04313609467455701;-0.1240828402366869;-0.0862721893491125;-0.100118343195266;0.06550295857988205;-0.1017159763313606;0.06390532544378744;0.07668639053254457;5.574042193009846;-0.4823690359335448;-1.3875553749693317;-0.9647380718670886;-1.119572577228473;0.732486313825012;-1.1374380970778637;0.7146207939756215;0.8575449527707456;30.278285659102124;-2.620236258960829;-7.537222818985943;-5.240472517921534;-6.081536008452123;3.9788772821256373;-6.178581795821035;3.8818314947567267;4.658197793708041;0.0014325447931584677;-0.00023317607668814973;-0.00021389271195225846;-5.9589458194958356e-05;0.7869822485207103;0.16378698224852087;-0.17320019723865876;-0.10688456842302997;0.2544378698224852;0.07171597633136093;-0.06533530571992113;-0.030994646379261775;0.1160420775805391;-0.046298487836949356;-0.008403188691650224;0.0037177921793306416;5.325443786982248;-0.47928994082840176;-0.7180719921104535;-0.38038884192730343;25.789209017751475;-2.3210288115976256;-3.4773644103796806;-1.842086358410819;47.9561354071717;-4.31605218664546;-6.466307609879056;-3.425438243369407;0.005051928994082836;-0.0004546736094674096;-0.0006811918145956422;-0.0003608520710059133;0.026094674556212966;-0.002348520710059206;-0.003518552761341231;-0.0018639053254437864;0.01917159763313607;-0.0017254437869822802;-0.002585059171597644;-0.0013693998309382937;0.21438623819268637;-0.019294761437341792;-0.02890740364519441;-0.015313302728049025;1.1645494484270047;-0.10480945035843316;-0.1570254753955405;-0.08318210345907197;-0.16277053101707506;-0.14930961529005238;-0.041596924912606616;0.20812030075187984;-0.22008145363408513;-0.13581572980069218;-0.3989801699716713;-0.0724150141643059;0.032038311075138284;-0.08999999999999989;-0.13483796296296294;-0.07142857142857142;-0.08999999999999972;-0.13483796296296283;-0.0714285714285714;-0.09000000000000015;-0.134837962962963;-0.07142857142857142;-0.08999999999999098;-0.1348379629629594;-0.07142857142857072;-0.09000000000000151;-0.13483796296296355;-0.07142857142857155;-0.09000000000000176;-0.1348379629629637;-0.07142857142857158;-0.0900000000000001;-0.134837962962963;-0.07142857142857142;-0.09000000000000234;-0.13483796296296388;-0.07142857142857159;1.6975564095543998;1.2480207015215885;1.022481246083998;1.4172932330827064;1.7817982456140344;1.2411982336794363;2.0070821529745047;0.949451133144476;0.8439565627950898;1.625;1.316550925925926;1.0747354497354498;1.6250000000000007;1.3165509259259263;1.07473544973545;1.6249999999999998;1.3165509259259258;1.0747354497354498;1.625;1.3165509259259258;1.0747354497354495;1.6249999999999998;1.3165509259259256;1.0747354497354495;1.6250000000000002;1.316550925925926;1.0747354497354498;1.6250000000000002;1.3165509259259263;1.0747354497354498;1.625;1.316550925925926;1.0747354497354498;0.20527169602240636;-0.20724359157422273;3.0257064131013003;0.9871445730036392;3.0257064131013003;0.9871445730036392;2.027986685093469;1.233524085623924;6.20839013070867;5.796528812603327;12.219390130708657;11.807528812603332;20.787916406824195;20.37605508871888;2.954390130708667;2.5425288126033356;2.7583901307086673;2.3465288126033377;2.708390130708667;2.2965288126033334;1.8783901307086663;1.4665288126033353;11.468690130708664;11.056828812603346;2.862065598305084;39.52559662253774;19.762798311268874;30.516303472070106;39.52559662253775;4.9406995778172185;19.76279831933268;2.7810199784844114;0.3476274973105514;0.7996742078328535;21.93662350050794;2.7420779375634927;2.8650139947208766;39.52559662253774;19.762798311268874;30.516303472070106;39.52559662253775;4.9406995778172185;19.76279831933268;2.7810199784844114;0.3476274973105514;0.7996742078328535;21.93662350050794;2.7420779375634927;2.8650139947208766;39.52559662253774;19.762798311268874;30.516303472070106;39.52559662253775;4.9406995778172185;19.76279831933268;2.7810199784844114;0.3476274973105514;0.7996742078328535;21.93662350050794;2.7420779375634927;2.8650139947208766;39.52559662253774;19.762798311268874;30.516303472070106;39.52559662253775;4.9406995778172185;19.76279831933268;2.7810199784844114;0.3476274973105514;0.7996742078328535;21.93662350050794;2.7420779375634927;2.8650139947208766;39.52559662253774;19.762798311268874;30.516303472070106;39.52559662253775;4.9406995778172185;19.76279831933268;2.7810199784844114;0.3476274973105514;0.7996742078328535;21.93662350050794;2.7420779375634927;2.8650139947208766;39.52559662253774;19.762798311268874;30.516303472070106;39.52559662253775;4.9406995778172185;19.76279831933268;2.7810199784844114;0.3476274973105514;0.7996742078328535;21.93662350050794;2.7420779375634927;2.8650139947208766;39.52559662253774;19.762798311268874;30.516303472070106;39.52559662253775;4.9406995778172185;19.76279831933268;2.7810199784844114;0.3476274973105514;0.7996742078328535;21.93662350050794;2.7420779375634927;2.8650139947208766;39.52559662253774;19.762798311268874;30.516303472070106;39.52559662253775;4.9406995778172185;19.76279831933268;2.7810199784844114;0.3476274973105514;0.7996742078328535;21.93662350050794;2.7420779375634927;2.8650139947208766;39.30296890880645;25.0;7.0;25.0;25.0;0.1448569748197316;0.06641002786410731;3.0;4.0;1.0;0.0;0.28867513459481287;0.0;0.0;0.0;0.28867513459481287;0.0;0.0;0.0;0.4927992798267444;0.34846171252933794;0.28867513459481287;0.4927992798267444;0.34846171252933794;0.28867513459481287;6.405777393935816;3.808060412490447;2.6556485311744886;1.7474002407106255;0.756710002993201;0.4927992798267444;0.14433756729740643;0.0;0.800722174241977;0.5440086303557782;6.405777393935816;3.808060412490447;2.6556485311744886;1.7474002407106255;0.756710002993201;0.4927992798267444;0.14433756729740643;0.0;0.800722174241977;0.5440086303557782;11.0;9.510615269336444;12.87645023407287;24.990531682447198;23.529411764705884;23.84;15.186990419161678;29.737606813317583;0.4230769230769231;0.36579289497447864;0.4952480859258796;0.9611742954787383;0.904977375565611;0.916923076923077;0.584115016121603;1.1437541082045224;39.52559662253774;19.762798311268874;30.516303472070106;39.52559662253775;4.9406995778172185;19.76279831933268;2.7810199784844114;0.3476274973105514;0.7996742078328535;21.93662350050794;2.7420779375634927;2.8650139947208766;3.0;4.0;1.0;0.0;6.8456018518518515;5.534074074074074;0.9536574074074073;0.0;2.3290277777777777;2.252361111111111;63.0;4.0;0.375;0.125;0.0;3.5;0.4375;3.5;0.4375;8.47710974580348;1.059638718225435;3.808060412490447;0.47600755156130586;8.47710974580348;1.059638718225435;3.808060412490447;0.47600755156130586;0.10615314988264801;0.013269143735331002;0.10615314988264801;0.013269143735331002;0.4230769230769231;0.7;0.4230769230769231;0.4230769230769231;0.7;-3.5;-0.4375;0.7142857142857143;0.00028571428571433355;7.0;0.8904916402194913;1.322995967059358;2.5262349099495225;3.459491160199153;3.8441065448145384;3.8441065448145384;23.152782645706775;34.39789514354331;65.68210765868758;89.94677016517798;99.946770165178;99.946770165178;0.1894485821789581;0.2814621708588937;0.5374465074404967;0.7359930916351155;0.8178184968479476;0.8178184968479476;0.19175693730143042;0.28489167471905225;0.5439950779509543;0.7449608727799503;0.8277832877940645;0.8277832877940645;3.8099480779216;3.3774437510817337;2.1742048081915692;1.2409485579419388;0.8563331733265533;0.8563331733265533;6.654519640635535;11.849329110309174;16.767195010369562;19.400686541390417;19.788378849082726;19.788378849082726;31.72521615294554;24.13720727697972;20.30507436299734;15.666483623392182;14.371017944211895;14.371017944211895;8.0;1.0;0.0;-2.6520022005496857;123.58000000000004;53.293845828605804;46.454498090775914;5.917906046161393;5.917906046161393;46.454498090775914;5.917906046161393;46.454498090775914;0.0;5.917906046161393;25.683286491704038;0.0;20.771211599071872;0.0;0.9536574074074073;5.534074074074074;6.8456018518518515;0.6694329500821695;14.660137444288289;1.832517180536036;14.660137444288289;1.832517180536036;7.0;6.0;4.0;3.0;1.0;0.0;0.0;0.0;0.0;36.0;2.0794415416798357;2.0794415416798357;1.9459101490553132;1.6094379124341003;1.3862943611198906;0.6931471805599453;0.0;0.0;0.0;0.0;3.6109179126442243;25.362274;18.057726;4.0;0.5714285714285714;3.2227000000000023;38.98;1.5;0.666666666666667;0.25;0.16000000000000003;0.05555555555555555;0.0;0.0;0.0;0.0;0.0;0.21428571428571425;0.09523809523809527;0.041666666666666664;0.04000000000000001;0.018518518518518517;0.0;0.0;0.0;0.0;0.0;0.40970899470899474;6.0;3.0;1.0;0.5;146.92434073860016;3.807354922057604;7.0;3.367295829986474;4.007333185232471;4.6913478822291435;5.3612921657094255;6.052089168924417;6.729824070489475;7.422373700986824;8.10258642539079;8.795582216956426;69.52972464590545;2.70805020110221;3.7612001156935624;4.990432586778736;6.289715570908998;7.623153068476902;33.37255154296041;114.14085057599999;4.3900327144615385;76.0;6.0;28.0;27.0;4.111111111111111;2.166666666666667