boiling_point;SMILES;IUPAC_name;InChIKey;SpAbs_A;SpMax_A;SpDiam_A;SpAD_A;SpMAD_A;LogEE_A;VE1_A;VE2_A;VE3_A;VR1_A;VR2_A;VR3_A;nAtom;nHeavyAtom;nH;nC;ATS0dv;ATS1dv;ATS2dv;ATS3dv;ATS4dv;ATS5dv;ATS6dv;ATS7dv;ATS8dv;ATS0d;ATS1d;ATS2d;ATS3d;ATS4d;ATS5d;ATS6d;ATS7d;ATS8d;ATS0s;ATS1s;ATS2s;ATS3s;ATS4s;ATS5s;ATS6s;ATS7s;ATS8s;ATS0Z;ATS1Z;ATS2Z;ATS3Z;ATS4Z;ATS5Z;ATS6Z;ATS7Z;ATS8Z;ATS0m;ATS1m;ATS2m;ATS3m;ATS4m;ATS5m;ATS6m;ATS7m;ATS8m;ATS0v;ATS1v;ATS2v;ATS3v;ATS4v;ATS5v;ATS6v;ATS7v;ATS8v;ATS0se;ATS1se;ATS2se;ATS3se;ATS4se;ATS5se;ATS6se;ATS7se;ATS8se;ATS0pe;ATS1pe;ATS2pe;ATS3pe;ATS4pe;ATS5pe;ATS6pe;ATS7pe;ATS8pe;ATS0are;ATS1are;ATS2are;ATS3are;ATS4are;ATS5are;ATS6are;ATS7are;ATS8are;ATS0p;ATS1p;ATS2p;ATS3p;ATS4p;ATS5p;ATS6p;ATS7p;ATS8p;ATS0i;ATS1i;ATS2i;ATS3i;ATS4i;ATS5i;ATS6i;ATS7i;ATS8i;AATS0dv;AATS1dv;AATS2dv;AATS3dv;AATS0d;AATS1d;AATS2d;AATS3d;AATS0s;AATS1s;AATS2s;AATS3s;AATS0Z;AATS1Z;AATS2Z;AATS3Z;AATS0m;AATS1m;AATS2m;AATS3m;AATS0v;AATS1v;AATS2v;AATS3v;AATS0se;AATS1se;AATS2se;AATS3se;AATS0pe;AATS1pe;AATS2pe;AATS3pe;AATS0are;AATS1are;AATS2are;AATS3are;AATS0p;AATS1p;AATS2p;AATS3p;AATS0i;AATS1i;AATS2i;AATS3i;ATSC0c;ATSC1c;ATSC2c;ATSC3c;ATSC4c;ATSC5c;ATSC6c;ATSC7c;ATSC8c;ATSC0dv;ATSC1dv;ATSC2dv;ATSC3dv;ATSC4dv;ATSC5dv;ATSC6dv;ATSC7dv;ATSC8dv;ATSC0d;ATSC1d;ATSC2d;ATSC3d;ATSC4d;ATSC5d;ATSC6d;ATSC7d;ATSC8d;ATSC0s;ATSC1s;ATSC2s;ATSC3s;ATSC4s;ATSC5s;ATSC6s;ATSC7s;ATSC8s;ATSC0Z;ATSC1Z;ATSC2Z;ATSC3Z;ATSC4Z;ATSC5Z;ATSC6Z;ATSC7Z;ATSC8Z;ATSC0m;ATSC1m;ATSC2m;ATSC3m;ATSC4m;ATSC5m;ATSC6m;ATSC7m;ATSC8m;ATSC0v;ATSC1v;ATSC2v;ATSC3v;ATSC4v;ATSC5v;ATSC6v;ATSC7v;ATSC8v;ATSC0se;ATSC1se;ATSC2se;ATSC3se;ATSC4se;ATSC5se;ATSC6se;ATSC7se;ATSC8se;ATSC0pe;ATSC1pe;ATSC2pe;ATSC3pe;ATSC4pe;ATSC5pe;ATSC6pe;ATSC7pe;ATSC8pe;ATSC0are;ATSC1are;ATSC2are;ATSC3are;ATSC4are;ATSC5are;ATSC6are;ATSC7are;ATSC8are;ATSC0p;ATSC1p;ATSC2p;ATSC3p;ATSC4p;ATSC5p;ATSC6p;ATSC7p;ATSC8p;ATSC0i;ATSC1i;ATSC2i;ATSC3i;ATSC4i;ATSC5i;ATSC6i;ATSC7i;ATSC8i;AATSC0c;AATSC1c;AATSC2c;AATSC3c;AATSC0dv;AATSC1dv;AATSC2dv;AATSC3dv;AATSC0d;AATSC1d;AATSC2d;AATSC3d;AATSC0s;AATSC1s;AATSC2s;AATSC3s;AATSC0Z;AATSC1Z;AATSC2Z;AATSC3Z;AATSC0m;AATSC1m;AATSC2m;AATSC3m;AATSC0v;AATSC1v;AATSC2v;AATSC3v;AATSC0se;AATSC1se;AATSC2se;AATSC3se;AATSC0pe;AATSC1pe;AATSC2pe;AATSC3pe;AATSC0are;AATSC1are;AATSC2are;AATSC3are;AATSC0p;AATSC1p;AATSC2p;AATSC3p;AATSC0i;AATSC1i;AATSC2i;AATSC3i;MATS1c;MATS2c;MATS3c;MATS1dv;MATS2dv;MATS3dv;MATS1s;MATS2s;MATS3s;MATS1Z;MATS2Z;MATS3Z;MATS1m;MATS2m;MATS3m;MATS1v;MATS2v;MATS3v;MATS1se;MATS2se;MATS3se;MATS1pe;MATS2pe;MATS3pe;MATS1are;MATS2are;MATS3are;MATS1p;MATS2p;MATS3p;MATS1i;MATS2i;MATS3i;GATS1c;GATS2c;GATS3c;GATS1dv;GATS2dv;GATS3dv;GATS1s;GATS2s;GATS3s;GATS1Z;GATS2Z;GATS3Z;GATS1m;GATS2m;GATS3m;GATS1v;GATS2v;GATS3v;GATS1se;GATS2se;GATS3se;GATS1pe;GATS2pe;GATS3pe;GATS1are;GATS2are;GATS3are;GATS1p;GATS2p;GATS3p;GATS1i;GATS2i;GATS3i;BCUTc-1h;BCUTc-1l;BCUTdv-1h;BCUTdv-1l;BCUTd-1h;BCUTd-1l;BCUTs-1h;BCUTs-1l;BCUTZ-1h;BCUTZ-1l;BCUTm-1h;BCUTm-1l;BCUTv-1h;BCUTv-1l;BCUTse-1h;BCUTse-1l;BCUTpe-1h;BCUTpe-1l;BCUTare-1h;BCUTare-1l;BCUTp-1h;BCUTp-1l;BCUTi-1h;BCUTi-1l;BalabanJ;SpAbs_DzZ;SpMax_DzZ;SpDiam_DzZ;SpAD_DzZ;SpMAD_DzZ;LogEE_DzZ;VE1_DzZ;VE2_DzZ;VE3_DzZ;VR1_DzZ;VR2_DzZ;VR3_DzZ;SpAbs_Dzm;SpMax_Dzm;SpDiam_Dzm;SpAD_Dzm;SpMAD_Dzm;LogEE_Dzm;VE1_Dzm;VE2_Dzm;VE3_Dzm;VR1_Dzm;VR2_Dzm;VR3_Dzm;SpAbs_Dzv;SpMax_Dzv;SpDiam_Dzv;SpAD_Dzv;SpMAD_Dzv;LogEE_Dzv;VE1_Dzv;VE2_Dzv;VE3_Dzv;VR1_Dzv;VR2_Dzv;VR3_Dzv;SpAbs_Dzse;SpMax_Dzse;SpDiam_Dzse;SpAD_Dzse;SpMAD_Dzse;LogEE_Dzse;VE1_Dzse;VE2_Dzse;VE3_Dzse;VR1_Dzse;VR2_Dzse;VR3_Dzse;SpAbs_Dzpe;SpMax_Dzpe;SpDiam_Dzpe;SpAD_Dzpe;SpMAD_Dzpe;LogEE_Dzpe;VE1_Dzpe;VE2_Dzpe;VE3_Dzpe;VR1_Dzpe;VR2_Dzpe;VR3_Dzpe;SpAbs_Dzare;SpMax_Dzare;SpDiam_Dzare;SpAD_Dzare;SpMAD_Dzare;LogEE_Dzare;VE1_Dzare;VE2_Dzare;VE3_Dzare;VR1_Dzare;VR2_Dzare;VR3_Dzare;SpAbs_Dzp;SpMax_Dzp;SpDiam_Dzp;SpAD_Dzp;SpMAD_Dzp;LogEE_Dzp;VE1_Dzp;VE2_Dzp;VE3_Dzp;VR1_Dzp;VR2_Dzp;VR3_Dzp;SpAbs_Dzi;SpMax_Dzi;SpDiam_Dzi;SpAD_Dzi;SpMAD_Dzi;LogEE_Dzi;VE1_Dzi;VE2_Dzi;VE3_Dzi;VR1_Dzi;VR2_Dzi;VR3_Dzi;BertzCT;nBonds;nBondsO;nBondsS;nBondsKS;RNCG;RPCG;C1SP3;C2SP3;C3SP3;C4SP3;Xc-3d;Xc-4d;Xc-5d;Xc-6d;Xc-3dv;Xc-4dv;Xc-5dv;Xc-6dv;Xpc-4d;Xpc-5d;Xpc-6d;Xpc-4dv;Xpc-5dv;Xpc-6dv;Xp-0d;Xp-1d;Xp-2d;Xp-3d;Xp-4d;Xp-5d;Xp-6d;Xp-7d;AXp-0d;AXp-1d;Xp-0dv;Xp-1dv;Xp-2dv;Xp-3dv;Xp-4dv;Xp-5dv;Xp-6dv;Xp-7dv;AXp-0dv;AXp-1dv;SZ;Sm;Sv;Sse;Spe;Sare;Sp;Si;MZ;Mm;Mv;Mse;Mpe;Mare;Mp;Mi;SpAbs_D;SpMax_D;SpDiam_D;SpAD_D;SpMAD_D;LogEE_D;VE1_D;VE2_D;VE3_D;VR1_D;VR2_D;VR3_D;NsCH3;NssCH2;NsssCH;NssssC;SsCH3;SssCH2;SsssCH;SssssC;MAXsCH3;MINsCH3;ECIndex;ETA_alpha;ETA_shape_p;ETA_shape_y;ETA_shape_x;ETA_beta;AETA_beta;ETA_beta_s;AETA_beta_s;ETA_eta;AETA_eta;ETA_eta_L;AETA_eta_L;ETA_eta_R;AETA_eta_R;ETA_eta_RL;AETA_eta_RL;ETA_eta_B;AETA_eta_B;ETA_eta_BR;AETA_eta_BR;ETA_epsilon_1;ETA_epsilon_2;ETA_epsilon_3;ETA_epsilon_4;ETA_epsilon_5;ETA_dBeta;AETA_dBeta;ETA_psi_1;ETA_dPsi_B;fragCpx;IC0;IC1;IC2;IC3;IC4;IC5;TIC0;TIC1;TIC2;TIC3;TIC4;TIC5;SIC0;SIC1;SIC2;SIC3;SIC4;SIC5;BIC0;BIC1;BIC2;BIC3;BIC4;BIC5;CIC0;CIC1;CIC2;CIC3;CIC4;CIC5;MIC0;MIC1;MIC2;MIC3;MIC4;MIC5;ZMIC0;ZMIC1;ZMIC2;ZMIC3;ZMIC4;ZMIC5;Kier1;Lipinski;GhoseFilter;FilterItLogS;VMcGowan;LabuteASA;PEOE_VSA6;PEOE_VSA7;SMR_VSA4;SMR_VSA5;SlogP_VSA4;SlogP_VSA5;EState_VSA3;EState_VSA4;EState_VSA5;EState_VSA7;EState_VSA8;VSA_EState4;VSA_EState5;VSA_EState7;VSA_EState8;MDEC-11;MID;AMID;MID_C;AMID_C;MPC2;MPC3;MPC4;MPC5;MPC6;MPC7;MPC8;MPC9;MPC10;TMPC10;piPC1;piPC2;piPC3;piPC4;piPC5;piPC6;piPC7;piPC8;piPC9;piPC10;TpiPC10;apol;bpol;nRot;RotRatio;SLogP;SMR;GGI1;GGI2;GGI3;GGI4;GGI5;GGI6;GGI7;GGI8;GGI9;GGI10;JGI1;JGI2;JGI3;JGI4;JGI5;JGI6;JGI7;JGI8;JGI9;JGI10;JGT10;Diameter;Radius;TopoShapeIndex;PetitjeanIndex;Vabc;VAdjMat;MWC01;MWC02;MWC03;MWC04;MWC05;MWC06;MWC07;MWC08;MWC09;MWC10;TMWC10;SRW02;SRW04;SRW06;SRW08;SRW10;TSRW10;MW;AMW;WPath;WPol;Zagreb1;Zagreb2;mZagreb1;mZagreb2
244.0;CCCCCCCCCCCCCCCCCC(CCCC)CCCC;5-butyldocosane;CSRNPDQIQWQJCM-UHFFFAOYSA-N;32.302158135491034;2.108636134676472;4.217272269352943;32.302158135491034;1.2423906975188859;4.077698748594303;3.503447911622529;0.1347479966008665;2.209259046219328;1990.7773086192235;76.56835802381629;8.551791893825127;80.0;26.0;54.0;26.0;100.0;100.0;100.0;100.0;98.0;92.0;84.0;76.0;69.0;154.0;200.0;331.0;400.0;398.0;396.0;382.0;368.0;337.0;117.27777777777777;143.08333333333331;240.75;309.75;309.58333333333337;310.4166666666667;313.91666666666663;307.41666666666663;283.16666666666663;990.0;1224.0;1531.0;1600.0;1600.0;1600.0;1550.0;1440.0;1312.0;3805.734602000001;4260.3857769999995;4848.8098089999985;4918.918224999999;4918.918224999999;4918.918224999999;4676.786206999999;4301.561900999999;3908.0484429999997;12689.961644752802;16783.69982774125;23025.180258143948;25169.95862387813;25169.95862387813;25169.958623878134;24719.703796999685;23265.614506846177;21252.017816935928;558.8504719999999;572.865028;1108.5484840000001;1572.1225000000004;1572.1225000000002;1572.1225;1572.075068;1567.2376200000003;1441.46782;430.4250000000001;465.5025;873.6025;1207.5624999999998;1207.5625;1207.5625;1207.3175;1197.8325;1101.2275;423.8600000000001;453.25;856.2900000000001;1190.25;1190.25;1190.25;1190.07;1181.97;1086.75;96.52049686184603;129.85389274;194.859931050319;225.53822148490002;225.5382214849;225.5382214849;223.525372915202;213.485347483692;195.4422897649;13282.206467649448;11438.476478746601;24214.56088629172;36973.8788759649;36973.8788759649;36973.8788759649;36962.94505058801;37333.5524769473;34375.64216687011;1.25;1.2658227848101267;0.6410256410256411;0.4444444444444444;1.925;2.5316455696202533;2.121794871794872;1.7777777777777777;1.4659722222222222;1.811181434599156;1.5432692307692308;1.3766666666666667;12.375;15.49367088607595;9.814102564102564;7.111111111111111;47.571682525000014;53.928933886075946;31.0821141602564;21.861858777777776;158.62452055941003;212.4518965536867;147.5973093470766;111.86648277279168;6.9856308999999985;7.251456050632912;7.106080025641027;6.987211111111113;5.380312500000001;5.892436708860759;5.600016025641025;5.366944444444443;5.298250000000001;5.737341772151899;5.489038461538462;5.29;1.2065062107730753;1.6437201612658228;1.2491021221174294;1.0023920954884444;166.0275808456181;144.79084150312153;155.22154414289565;164.328350559844;0.11405549596064579;-0.006035508521937706;-0.05066710659128448;-0.0004162092938298326;0.0004795201517078149;0.0034976240704202113;-0.009790328561664577;0.00026474490918474087;-0.00023067258471767067;68.75;5.859375;-26.5625;0.390625;-1.609375;-7.609375;-8.109375;-1.109375;-0.140625;18.8;3.309999999999998;-5.960000000000003;0.24999999999999878;-1.7500000000000007;-3.750000000000001;-2.150000000000001;-0.5499999999999997;0.43000000000000055;6.043055555555554;-0.9862673611111119;-2.217291666666667;-0.0023437499999999223;-0.16901041666666666;0.6643229166666668;-0.55234375;0.022656250000000266;0.26984375000000027;438.75;-11.390625;-181.8125;0.390625;0.390625;0.390625;-49.609375;-2.109375;-2.140625;2124.7084579499997;-55.16070035062663;-880.4525504525013;1.891656390624906;1.8916563906248882;1.8916563906248456;-240.24036160937507;-10.214944509374732;-10.366277020624729;3950.9861058583583;-102.57367774824579;-1637.239114236747;3.517615834987808;3.5176158349877937;3.517615834987815;-446.73721104345753;-18.995125508934436;-19.276534775733424;0.4162157999999996;-0.010805602499997836;-0.1724746099999978;0.00037056250000015115;0.0003705625000001503;0.0003705625000001529;-0.04706143749999979;-0.002001037500000335;-0.0020306825000003473;2.1498749999999953;-0.05581406249999414;-0.8908812499999929;0.0019140625000004172;0.0019140625000004519;0.0019140625000003963;-0.2430859374999991;-0.010335937500000877;-0.010489062500000913;1.5794999999999981;-0.041006249999989065;-0.6545249999999894;0.001406250000000768;0.001406250000000768;0.0014062500000007541;-0.17859374999999902;-0.007593750000001703;-0.007706250000001778;17.662746199099946;-0.45855206478434085;-7.319220611564365;0.015725379450764326;0.015725379450764465;0.015725379450764437;-1.9971231902472355;-0.08491704903413189;-0.08617507939019334;95.94431768227982;-2.490862093674145;-39.75812252674491;0.08542051075704571;0.08542051075704604;0.08542051075704604;-10.848404866140942;-0.4612707580879505;-0.4681043989485141;0.0014256936995080724;-7.639884204984438e-05;-0.00032478914481592615;-1.849819083688145e-06;0.859375;0.07416930379746836;-0.1702724358974359;0.001736111111111111;0.23500000000000001;0.04189873417721516;-0.038205128205128225;0.0011111111111111057;0.07553819444444443;-0.012484396976090025;-0.014213408119658122;-1.041666666666632e-05;5.484375;-0.14418512658227847;-1.1654647435897436;0.001736111111111111;26.558855724374997;-0.6982367132990712;-5.643926605464752;0.008407361736110694;49.38732632322948;-1.29840098415501;-10.495122527158633;0.015633848155501368;0.005202697499999995;-0.00013677977848098525;-0.0011056064743589604;1.6469444444451162e-06;0.02687343749999994;-0.0007065071202530904;-0.005710777243589698;8.506944444446299e-06;0.019743749999999977;-0.0005190664556960641;-0.004195673076923008;6.250000000003413e-06;0.22078432748874932;-0.005804456516257479;-0.04691808084336131;6.989057533673033e-05;1.1993039710284976;-0.031529899919925886;-0.25485975978682635;0.0003796467144757587;-0.05358713591580392;-0.22781130682417466;-0.0012974870298763433;0.08630609896432681;-0.19813519813519814;0.00202020202020202;-0.16527264211050002;-0.18816187260223122;-0.00013789933348655025;-0.026290165530671858;-0.2125063919935715;0.00031655587211142766;-0.02629016553067264;-0.21250639199357182;0.000316555872111412;-0.026290165530671844;-0.21250639199357146;0.00031655587211142344;-0.02629016553066662;-0.21250639199356902;0.0003165558721115571;-0.026290165530669155;-0.21250639199357024;0.0003165558721114973;-0.02629016553066488;-0.21250639199356824;0.00031655587211160087;-0.02629016553067274;-0.21250639199357188;0.0003165558721114016;-0.02629016553066735;-0.2125063919935694;0.0003165558721115396;1.566969778513064;1.424124672182095;0.9770650884672083;1.4545454545454546;1.5394871794871794;1.0673777777777778;1.732934957481039;1.2360553718862155;0.8569983911744429;1.5384615384615383;1.4427642632770838;1.0003165558721114;1.538461538461539;1.442764263277084;1.0003165558721117;1.5384615384615385;1.4427642632770834;1.0003165558721112;1.538461538461538;1.4427642632770836;1.0003165558721112;1.5384615384615385;1.442764263277084;1.0003165558721117;1.5384615384615385;1.4427642632770838;1.0003165558721114;1.5384615384615388;1.442764263277084;1.0003165558721114;1.5384615384615394;1.4427642632770845;1.0003165558721119;0.22622901087392727;-0.21209510811281848;3.0295955189703117;0.9871436102038041;3.0295955189703117;0.9871436102038041;2.0274805278120405;1.213065566587336;6.2271762487022615;5.789777246861197;12.238176248702272;11.800777246861232;20.80670252481783;20.369303522976775;2.973176248702269;2.535777246861211;2.777176248702264;2.339777246861212;2.7271762487022633;2.2897772468612114;1.8971762487022619;1.4597772468612147;11.48747624870227;11.050077246861232;3.2585051862230805;424.2778614556128;212.13893072780647;333.87102419712164;424.27786145561294;16.318379286754343;212.13893072780647;5.014911474344835;0.1928812105517244;2.5679272141110245;136.08628672050014;5.234087950788467;5.868800590758234;424.2778614556128;212.13893072780647;333.87102419712164;424.27786145561294;16.318379286754343;212.13893072780647;5.014911474344835;0.1928812105517244;2.5679272141110245;136.08628672050014;5.234087950788467;5.868800590758234;424.2778614556128;212.13893072780647;333.87102419712164;424.27786145561294;16.318379286754343;212.13893072780647;5.014911474344835;0.1928812105517244;2.5679272141110245;136.08628672050014;5.234087950788467;5.868800590758234;424.2778614556128;212.13893072780647;333.87102419712164;424.27786145561294;16.318379286754343;212.13893072780647;5.014911474344835;0.1928812105517244;2.5679272141110245;136.08628672050014;5.234087950788467;5.868800590758234;424.2778614556128;212.13893072780647;333.87102419712164;424.27786145561294;16.318379286754343;212.13893072780647;5.014911474344835;0.1928812105517244;2.5679272141110245;136.08628672050014;5.234087950788467;5.868800590758234;424.2778614556128;212.13893072780647;333.87102419712164;424.27786145561294;16.318379286754343;212.13893072780647;5.014911474344835;0.1928812105517244;2.5679272141110245;136.08628672050014;5.234087950788467;5.868800590758234;424.2778614556128;212.13893072780647;333.87102419712164;424.27786145561294;16.318379286754343;212.13893072780647;5.014911474344835;0.1928812105517244;2.5679272141110245;136.08628672050014;5.234087950788467;5.868800590758234;424.2778614556128;212.13893072780647;333.87102419712164;424.27786145561294;16.318379286754343;212.13893072780647;5.014911474344835;0.1928812105517244;2.5679272141110245;136.08628672050014;5.234087950788467;5.868800590758234;224.1928094887362;79.0;25.0;79.0;79.0;0.04635977412834201;0.021461707601883723;3.0;22.0;1.0;0.0;0.2041241452319315;0.0;0.0;0.0;0.2041241452319315;0.0;0.0;0.0;0.4330127018922193;0.6123724356957946;0.7814744144215573;0.4330127018922193;0.6123724356957946;0.7814744144215573;19.133699455293673;12.846065214951233;8.88890505706126;6.147777478867206;4.222944306997571;3.047685618029955;1.994482036136674;1.2967807363990118;0.7359115175112951;0.5138426085980493;19.133699455293673;12.846065214951233;8.88890505706126;6.147777478867206;4.222944306997571;3.047685618029955;1.994482036136674;1.2967807363990118;0.7359115175112951;0.5138426085980493;35.0;30.531845808009322;40.629350702218616;76.9715950473416;72.58823529411765;73.52000000000001;47.56097125748502;91.21282043995275;0.4375;0.3816480726001165;0.5078668837777327;0.9621449380917699;0.9073529411764707;0.9190000000000002;0.5945121407185627;1.1401602554994095;424.2778614556128;212.13893072780647;333.87102419712164;424.27786145561294;16.318379286754343;212.13893072780647;5.014911474344835;0.1928812105517244;2.5679272141110245;136.08628672050014;5.234087950788467;5.868800590758234;3.0;22.0;1.0;0.0;6.97907373248167;32.31548870790033;1.038770892951331;0.0;2.337787545992793;2.3034986404960844;814.0;13.0;0.11538461538461539;0.038461538461538464;0.0;12.5;0.4807692307692308;12.5;0.4807692307692308;40.425768873574945;1.554837264368267;12.846065214951233;0.4940794313442782;40.425768873574945;1.554837264368267;12.846065214951233;0.4940794313442782;0.06814834742186271;0.002621090285456258;0.06814834742186271;0.002621090285456258;0.43;0.7;0.43;0.43;0.7;-12.5;-0.4807692307692308;0.7142857142857143;0.00028571428571433355;25.0;0.9097361225311662;1.1515992420247207;1.9843158606434583;2.7329717644257174;3.1978124655115505;3.7495817701478353;72.7788898024933;92.12793936197767;158.74526885147668;218.63774115405738;255.82499724092403;299.9665416118268;0.1439016877251235;0.18215949703003365;0.3138782711319042;0.43230035574683495;0.5058286676967536;0.5931073105972493;0.1443159524217652;0.1826838984458231;0.3147818650287406;0.4335448635671577;0.5072848490862056;0.5948147500580697;5.412191972356196;5.170328852862642;4.337612234243904;3.588956330461645;3.124115629375812;2.5723463247395273;6.7154159095466595;9.620433837783745;13.842921187157017;16.068809251874566;18.709525085206444;20.99251338991815;102.87809030582184;91.94884807584204;78.79036131569126;71.53339067274071;61.27755547107464;51.133110534281194;26.0;0.0;0.0;-9.943541317064453;377.20000000000005;167.86280388774483;162.02928730344416;5.917906046161393;5.917906046161393;162.02928730344416;5.917906046161393;162.02928730344416;0.0;5.917906046161393;141.25807570437226;0.0;20.771211599071872;0.0;1.038770892951331;32.31548870790033;6.97907373248167;0.19706601259865153;50.68205254570909;1.9493097132965036;50.68205254570909;1.9493097132965036;25.0;25.0;25.0;25.0;23.0;21.0;19.0;17.0;16.0;247.0;3.258096538021482;3.258096538021482;3.258096538021482;3.258096538021482;3.258096538021482;3.1780538303479458;3.091042453358316;2.995732273553991;2.8903717578961645;2.833213344056216;5.5134287461649825;79.426822;54.173178;22.0;0.88;10.244499999999993;122.08600000000013;1.5;0.666666666666667;0.375;0.24000000000000005;0.16666666666666669;0.12244897959183673;0.09375;0.0493827160493827;0.04000000000000001;0.03305785123966942;0.060000000000000005;0.02666666666666668;0.015000000000000001;0.009600000000000001;0.006666666666666666;0.005323868677905945;0.004464285714285714;0.002599090318388563;0.002352941176470589;0.002066115702479339;0.1347396349228635;21.0;11.0;0.9090909090909091;0.47619047619047616;458.2520747680315;5.643856189774724;25.0;4.61512051684126;5.303304908059076;6.008813185442595;6.715383386334681;7.430707082545968;8.145839612936841;8.866581653303996;9.586651262653996;10.311050458726438;117.98345206684485;3.9318256327243257;5.017279836814924;6.240275845170769;7.534228326274089;8.87360810154911;57.59721774253322;366.4225517280015;4.5802818966000185;2653.0;25.0;100.0;100.0;8.61111111111111;6.750000000000001